# Time	LEU-18	GLU-19	ASP-20	GLY-21	ALA-22	TYR-23	ARG-24	ILE-25	LYS-26	GLN-27	LYS-28	GLY-29	ILE-30	LEU-31	GLY-32	TYR-33	SER-34	GLN-35	ILE-36	GLY-37	ALA-38	GLY-39	VAL-40	TYR-41	LYS-42	GLU-43	GLY-44	THR-45	PHE-46	HIS-47	THR-48	MET-49	TRP-50	HIS-51	VAL-52	THR-53	ARG-54	GLY-55	ALA-56	VAL-57	LEU-58	MET-59	HIS-60	LYS-61	GLY-62	LYS-63	ARG-64	ILE-65	GLU-66	PRO-67	SER-68	TRP-69	ALA-70	ASP-71	VAL-72	LYS-73	LYS-74	ASP-75	LEU-76	ILE-77	SER-78	TYR-79	GLY-80	GLY-81	GLY-82	TRP-83	LYS-84	LEU-85	GLU-86	GLY-87	GLU-88	TRP-89	LYS-90	GLU-91	GLY-92	GLU-93	GLU-94	VAL-95	GLN-96	VAL-97	LEU-98	ALA-99	LEU-100	GLU-101	PRO-102	GLY-103	LYS-104	ASN-105	PRO-106	ARG-107	ALA-108	VAL-109	GLN-110	THR-111	LYS-112	PRO-113	GLY-114	LEU-115	PHE-116	LYS-117	THR-118	ASN-119	THR-120	GLY-121	THR-122	ILE-123	GLY-124	ALA-125	VAL-126	SER-127	LEU-128	ASP-129	PHE-130	SER-131	PRO-132	GLY-133	THR-134	SER-135	GLY-136	SER-137	PRO-138	ILE-139	VAL-140	ASP-141	LYS-142	LYS-143	GLY-144	LYS-145	VAL-146	VAL-147	GLY-148	LEU-149	TYR-150	GLY-151	ASN-152	GLY-153	VAL-154	VAL-155	THR-156	ARG-157	SER-158	GLY-159	ALA-160	TYR-161	VAL-162	SER-163	ALA-164	ILE-165	ALA-166	ASN-167	UNK1-168	
          0.000          0.313         -0.223         -0.244         -0.021          0.029         -0.038          0.530         -0.036          0.438         -0.045          0.295          0.000          0.007          0.007         -0.014          0.024          0.023          0.049         -0.157          0.056         -0.112          0.002         -0.032          0.010          0.233         -0.245         -0.007          0.017         -0.002          0.034         -0.023         -0.185          0.149         -4.859         -0.100         -0.030          1.280          0.031         -0.011         -0.019          0.010         -0.022          0.005          0.254          0.006          0.298          0.380         -0.009         -0.414          0.027          0.015         -0.043          0.053         -0.946         -0.201          0.582          0.364        -11.630         -0.079         -0.054         -0.037         -0.036          0.005         -0.023          0.002         -0.011          0.384          0.001         -0.158         -0.022         -0.082         -0.020         -0.213          0.368         -0.016          0.253          0.589          0.046         -0.086          0.002         -0.066          0.043         -0.094         -0.474          0.024          0.021         -0.132         -0.043          0.033         -0.367          0.015         -0.050          0.020         -0.056         -0.707         -0.055         -0.101          0.045         -0.076         -0.269          0.082          0.123          0.038          0.005         -0.017          0.030         -0.068         -0.022         -0.001         -0.526        -10.489          3.469         -2.764         -2.020         -9.296         -0.500          0.120         -1.687          0.002         -0.017         -0.031         -0.089          0.023         -0.004         -0.232         -0.018         -0.020          0.130          0.003         -0.018          0.052         -0.044         -3.580         -3.544         -4.363         -5.748         -0.465         -0.143         -0.336         -0.179         -0.107         -0.041         -0.708         -4.214         -0.891         -0.945         -0.285         -0.112         -0.020         -0.015        -65.097
       1000.000          0.441         -0.538         -0.585         -0.005          0.067         -0.078          1.380         -0.105          1.025          0.041          0.458          0.044          0.028         -0.036         -0.020          0.004          0.005          0.156         -0.491          0.159         -0.162         -0.021         -0.016         -0.007          0.613         -0.500          0.011         -0.005          0.022          0.037          0.069         -0.248         -0.587         -6.244         -0.021          0.021         -0.134          0.023         -0.031         -0.016          0.034         -0.026          0.043          0.570          0.013          0.434          0.281         -0.007         -0.262          0.015          0.023         -0.048          0.003         -0.295          0.155          0.014          0.017         -2.458          0.090         -0.104          0.023         -0.036         -0.023         -0.034         -0.011          0.010          0.521          0.023         -0.602          0.004         -0.390         -0.008          0.260         -0.010          0.007         -0.373         -0.194          0.044         -0.094          0.100         -0.084          0.122         -0.096         -1.046          0.121          0.036          0.774         -0.069          0.064          0.468          0.038         -0.064         -0.008         -0.022         -0.086          0.042         -0.111          0.070         -0.104         -0.193          0.099          0.041         -0.012         -0.015         -0.014          0.071         -0.110          0.097         -0.254         -0.212         -8.013          1.276         -1.374         -1.262         -6.722         -0.413          0.407         -0.884          0.200         -0.019         -0.074         -0.046         -0.023         -0.602          0.266          0.382         -0.018          0.486          0.053         -0.015          0.105         -0.194         -1.330         -7.749         -2.889         -2.847         -0.862         -0.451         -0.114         -0.278         -0.039          0.183         -1.433         -8.060         -0.606         -0.705         -0.249         -0.140         -0.022         -0.397        -52.457
       2000.000          0.273         -0.254         -0.290         -0.004          0.026         -0.029          0.721         -0.028          0.477          0.009          0.231          0.007          0.001         -0.010          0.006         -0.000         -0.031          0.069         -0.117          0.072         -0.042         -0.001         -0.010         -0.017          0.282         -0.246          0.000          0.007          0.005          0.022         -0.021          0.161          0.089         -0.678          0.039          0.004          0.019          0.031         -0.018         -0.014          0.012         -0.010          0.010          0.223          0.006          0.234          0.230         -0.008         -0.246          0.023          0.012         -0.030          0.036         -0.612         -0.135          0.259          0.436         -2.839         -0.025         -0.040         -0.007         -0.033         -0.004         -0.020          0.002          0.013          0.311          0.017         -0.215         -0.014         -0.104          0.001         -0.087          0.242         -0.013         -0.000          0.093          0.020         -0.045          0.029         -0.044          0.058         -0.067         -0.815          0.032          0.004          0.674         -0.031          0.026          0.432          0.007         -0.021         -0.012         -0.037         -0.225         -0.019         -0.056          0.063         -0.120         -0.281         -0.063          0.071         -0.040          0.005         -0.022          0.086         -0.081          0.042         -0.137         -0.326         -6.751         -0.405         -1.094         -0.494         -2.943         -0.087          0.187          0.325          0.076          0.055         -0.024         -0.010          0.002         -0.162          0.025          0.090         -0.009          0.154          0.013         -0.002          0.041         -0.028         -0.106         -0.735         -0.222         -0.280         -0.237         -1.141         -0.662         -0.620         -0.024         -0.880         -6.427        -19.091         -0.604         -0.142         -0.109         -0.084         -0.039         -0.700        -45.577
       3000.000         -0.068          0.066          0.136          0.002         -0.012          0.010          0.002         -0.006          0.055         -0.000          0.185          0.016          0.016         -0.007         -0.016         -0.001          0.016         -0.043          0.015         -0.036          0.007         -0.015          0.000          0.003         -0.229          0.190          0.000         -0.001          0.009         -0.015          0.005         -0.049         -0.124         -0.195         -0.073         -0.027          0.425         -0.034          0.028         -0.006         -0.003         -0.000         -0.002          0.015          0.002         -0.030          0.025         -0.005          0.051         -0.001         -0.003          0.002         -0.023          0.798          0.137         -0.818         -0.776          1.725          0.000          0.017          0.015          0.015          0.005          0.006         -0.011         -0.018         -0.208          0.006          0.254          0.021          0.438          0.013         -0.223          0.325         -0.024          0.232          0.201         -0.012          0.003         -0.023          0.009         -0.013         -0.010         -0.024          0.001         -0.003          0.098         -0.006         -0.011          0.002         -0.013          0.017         -0.007         -0.001         -0.189         -0.041          0.045         -0.031         -0.008         -0.406         -0.123         -0.182          0.011          0.046         -0.024         -0.032          0.080         -0.077          0.097         -0.012         -0.121          0.099         -0.031          0.040          0.079          0.011         -0.004         -0.075         -0.047          0.012         -0.010         -0.011          0.007          0.257         -0.181         -0.140         -0.005         -0.216         -0.000          0.024         -0.032          0.059         -0.017          0.035         -0.319          0.686         -0.858         -3.220         -0.083         -0.839         -0.419         -1.081          0.018         -5.110          0.248         -0.149         -0.095         -0.018          0.079          0.824         -9.054
       4000.000          0.228         -0.270         -0.313          0.001          0.028         -0.022          0.330          0.004          0.123          0.030         -0.042         -0.012         -0.020         -0.003          0.009          0.020         -0.031          0.051         -0.092          0.067         -0.058          0.019         -0.010          0.001          0.471         -0.382          0.002          0.004         -0.017          0.034         -0.028          0.043          0.216          0.446          0.003         -0.015          0.725          0.038         -0.038         -0.017          0.009         -0.017         -0.004          0.241          0.007          0.146          0.141         -0.002         -0.185          0.029          0.020         -0.048          0.070         -0.854         -0.368          0.071          0.876         -5.358         -0.048         -0.051         -0.011         -0.046         -0.014         -0.029          0.002          0.029          0.397          0.020         -0.399         -0.015         -0.665         -0.026          0.472         -0.662          0.025         -0.592         -0.510          0.017         -0.012          0.035         -0.024          0.020          0.007         -0.299          0.004          0.006          0.231         -0.008          0.018          0.344          0.016         -0.019         -0.019         -0.022          0.694          0.069         -0.062          0.003         -0.038          0.639          0.252          0.140         -0.087         -0.094          0.055         -0.007         -0.149          0.076         -0.137         -0.009         -0.226         -0.644          0.049         -0.091         -0.240         -0.030         -0.022          0.278          0.058         -0.042         -0.015          0.020         -0.013         -0.607          0.542          0.369          0.011          0.383          0.012         -0.021          0.078         -0.112         -0.057         -0.319          0.657         -3.820         -2.886         -4.276         -0.839          1.043          0.087          0.196         -0.743        -11.461         -0.731          0.041          0.119          0.012         -0.155         -1.242        -28.816
       5000.000          0.181         -0.257         -0.155          0.013          0.019         -0.018          0.875         -0.053          0.637         -0.018          0.384          0.038          0.033         -0.022         -0.006         -0.002          0.029         -0.057         -0.173          0.028         -0.035         -0.045         -0.001         -0.002          0.026          0.014          0.008         -0.008          0.023         -0.008          0.054         -0.073         -0.124         -1.350         -0.037         -0.008          0.218          0.009         -0.004         -0.022          0.017         -0.012          0.035          0.376          0.008          0.069          0.068         -0.009         -0.009          0.009          0.007         -0.041          0.004          1.048          0.045         -1.015         -1.477          0.243          0.023         -0.019          0.040         -0.005         -0.007         -0.009         -0.034         -0.004         -0.060          0.031          0.017          0.035          0.159          0.036         -0.203          0.244         -0.007         -0.110         -0.253         -0.017          0.005          0.019         -0.035          0.048         -0.037         -1.166         -0.006         -0.014          1.150         -0.049          0.018          0.765         -0.007          0.002         -0.006          0.013          0.281          0.031          0.024         -0.030          0.004         -0.307         -0.097         -0.243          0.065          0.076          0.007         -0.100          0.049          0.041         -0.173          0.008         -1.600         -1.630         -0.280         -0.123         -2.604         -0.149          0.211         -0.696          0.003          0.053         -0.052          0.016         -0.018         -0.146          0.123          0.107          0.002          0.015          0.035          0.036         -0.025         -0.004         -0.156         -0.817         -0.965         -5.736         -5.700         -3.982         -0.303         -1.043         -0.049         -0.260         -0.060         -9.284         -0.810         -0.414         -0.243         -0.086          0.009          0.950        -36.003
       6000.000         -0.236          0.160          0.204          0.009         -0.016          0.008         -0.127         -0.039         -0.177          0.024         -0.202          0.016          0.008          0.001          0.008         -0.031          0.044         -0.075         -0.066         -0.035          0.031         -0.021          0.017         -0.017         -0.214          0.241          0.010         -0.026          0.013         -0.043          0.055         -0.092         -0.300         -0.875          0.143          0.047         -9.014          0.002         -0.014          0.007         -0.007          0.018          0.009         -0.253         -0.007         -0.296         -0.575          0.021          0.563         -0.046         -0.008          0.041         -0.045          1.000          0.029         -0.868         -0.484          2.615          0.065         -0.021          0.043          0.011         -0.016          0.019         -0.012          0.002         -0.378          0.000          0.171          0.016          0.081         -0.011         -0.033         -0.131          0.000         -0.070         -0.098         -0.012          0.016         -0.012          0.008         -0.010         -0.005          0.033         -0.020         -0.012          0.020          0.006         -0.012          0.010         -0.007          0.001          0.008          0.006          0.160          0.002          0.018         -0.020          0.019          0.268          0.053         -0.021          0.008         -0.026          0.020         -0.034         -0.005         -0.011         -0.062         -0.041         -1.391          0.037          0.082         -0.046         -0.383          0.006          0.004         -0.039         -0.016          0.009         -0.017          0.009         -0.009          0.032          0.012         -0.041          0.009         -0.132         -0.005         -0.005         -0.012         -0.045          0.004         -0.001         -0.090         -0.134         -0.204          0.013         -0.280          0.682         -0.001         -0.107         -0.189         -4.930         -0.323         -0.074          0.048          0.032         -0.034          0.193        -16.219
       7000.000          0.058         -0.182         -0.135          0.021          0.021         -0.035          0.917         -0.079          0.634          0.055          0.053          0.065          0.039         -0.024          0.003         -0.009          0.055          0.012         -0.171         -0.013         -0.001         -0.034          0.020         -0.014          0.069          0.005          0.017         -0.020          0.041         -0.029          0.084         -0.060         -0.896         -2.142         -0.133         -0.030         -8.653          0.016          0.018         -0.017          0.021         -0.010         -0.007          0.197          0.006          0.011         -0.187          0.006          0.260          0.024          0.020         -0.040         -0.065          1.505          0.018         -1.491         -0.681          2.653          0.133         -0.043          0.073          0.005         -0.021         -0.003         -0.035          0.008         -0.167          0.018         -0.004          0.012         -0.132          0.019          0.158         -0.202         -0.003         -0.331         -0.517         -0.005          0.001          0.041         -0.074          0.095         -0.095         -1.710          0.015          0.001          1.239         -0.069          0.027          1.206          0.007         -0.014         -0.053          0.057          0.384          0.042         -0.029         -0.022         -0.013          0.105          0.019         -0.081         -0.027          0.003          0.015         -0.021         -0.020          0.070         -0.160         -0.005         -3.300         -2.097         -0.896          0.125         -3.121          0.061          0.205          0.067          0.045          0.037         -0.111          0.017         -0.031         -0.384          0.341          0.207          0.004          0.198          0.034          0.013          0.001         -0.049         -0.089         -0.325         -0.227         -1.476         -1.525         -0.642         -0.034          0.005          0.041         -0.016         -0.183         -9.362         -0.635         -0.251         -0.149         -0.019         -0.071          0.209        -31.714
       8000.000         -0.154          0.214          0.169         -0.015         -0.011         -0.007         -0.975          0.035         -0.666          0.042         -0.390         -0.038         -0.042          0.020          0.022          0.021         -0.035         -0.054         -0.022         -0.004         -0.014          0.040         -0.015          0.007         -0.065          0.036         -0.010          0.005         -0.030          0.012         -0.079          0.073          0.123          0.006         -0.072         -0.024          0.902         -0.002         -0.014          0.012         -0.020          0.006          0.005         -0.299         -0.012         -0.143         -0.098          0.003          0.041          0.004          0.002         -0.003          0.016         -0.602         -0.110          0.496          0.714         -1.848         -0.065         -0.004         -0.035         -0.017          0.004          0.004          0.020         -0.016          0.007         -0.021         -0.160         -0.025         -0.057         -0.043          0.020         -0.236          0.008          0.084          0.222          0.001         -0.012         -0.014          0.002         -0.100          0.054          1.672         -0.051          0.000         -1.586          0.083         -0.024         -1.267          0.022         -0.013          0.064         -0.075         -0.185         -0.029         -0.008          0.017          0.003          0.349          0.070          0.076         -0.015         -0.056         -0.004          0.029         -0.012          0.030         -0.019         -0.243         -1.919          2.495          1.052         -0.681         -3.101         -0.184         -0.268         -0.249         -0.017         -0.066          0.061         -0.031          0.007          0.181         -0.142         -0.111         -0.003         -0.136         -0.032         -0.037          0.030         -0.094         -0.610         -0.421         -0.221         -0.172         -0.301          0.027         -0.185          0.904         -0.046         -0.541         -0.392         -9.530         -0.655         -0.110          0.062         -0.025         -0.032         -0.576        -20.472
       9000.000          0.084         -0.075         -0.050         -0.012          0.031         -0.052         -0.483          0.024         -0.093         -0.038          0.174         -0.011          0.001         -0.021         -0.036          0.034         -0.085         -0.017         -0.290          0.036         -0.122          0.029         -0.031         -0.001          0.186         -0.184         -0.006          0.023         -0.027          0.031         -0.080          0.105          0.049         -2.132         -0.140          0.055          2.381          0.035          0.001         -0.023         -0.000         -0.010         -0.008          0.094          0.001          0.125          0.285         -0.014         -0.289          0.032          0.020         -0.044          0.054         -0.826         -0.202          0.396          0.705         -4.649         -0.063         -0.037         -0.027         -0.043          0.001         -0.018          0.008         -0.000          0.294         -0.016         -0.274         -0.031         -0.291         -0.050          0.122         -0.144          0.021          0.008          0.238          0.020         -0.037          0.022         -0.058         -0.075         -0.038          2.782          0.033          0.027         -1.642          0.058         -0.012         -2.015          0.014         -0.051          0.051         -0.103         -0.110         -0.026         -0.058          0.030         -0.044          0.235          0.035         -0.268          0.083         -0.041         -0.009          0.046         -0.089          0.010         -0.040         -0.078         -4.385          4.178          2.874         -0.931         -4.114         -0.104         -0.737         -0.561          0.000         -0.072          0.088         -0.043          0.004          0.019         -0.008         -0.032         -0.007          0.057         -0.008         -0.048          0.079         -0.126         -1.736         -2.225         -1.019         -8.298         -1.398         -0.988         -0.327          0.286         -0.005          0.037         -0.540         -5.916         -0.835         -0.366         -0.038         -0.098         -0.096         -0.823        -34.972
      10000.000          0.119         -0.085         -0.132         -0.027          0.018         -0.026         -0.332         -0.021         -0.012         -0.019          0.139         -0.022         -0.018          0.006         -0.014          0.038         -0.085          0.036         -0.254          0.015         -0.120          0.018         -0.028          0.009          0.230         -0.228         -0.006          0.010         -0.019          0.017         -0.089         -0.200         -0.240         -9.235         -0.424         -0.079          0.302          0.009         -0.006         -0.016          0.005         -0.003         -0.015          0.081          0.003          0.183          0.310         -0.013         -0.349          0.021          0.008         -0.018          0.027         -0.925         -0.140          0.715          0.778         -2.533         -0.058         -0.041         -0.026         -0.026          0.004         -0.015          0.012          0.011          0.323         -0.004         -0.263         -0.043         -0.298         -0.045          0.168         -0.145          0.018          0.055          0.273          0.037         -0.019          0.022         -0.087          0.006         -0.041          2.158          0.060          0.040         -1.668          0.019          0.018         -1.424          0.025         -0.051          0.012         -0.038         -0.310         -0.031         -0.109          0.033         -0.101         -0.183          0.027         -0.071          0.094         -0.045          0.010          0.053         -0.109          0.051         -0.211         -0.857         -4.301          3.915          0.043         -1.704         -4.124         -0.408         -0.910         -1.729         -0.002         -0.042          0.033         -0.050          0.008          0.050         -0.114         -0.141         -0.013          0.099          0.000         -0.029          0.059         -0.150         -0.902         -1.876         -0.731         -3.116         -0.398         -0.322         -0.132          0.436         -0.138         -0.107         -0.607         -3.992         -0.718         -0.423         -0.084         -0.135         -0.134         -0.945        -39.254
      11000.000          0.275         -0.374         -0.376         -0.003          0.037         -0.057          1.005         -0.084          0.566         -0.054          0.271          0.029          0.012         -0.002         -0.035          0.009          0.032          0.077         -0.595          0.030         -0.112         -0.015         -0.015         -0.003          0.446         -0.376          0.004         -0.002          0.014          0.013         -0.038         -0.619         -0.291         -8.231         -0.067          0.014         -3.686          0.027         -0.035         -0.016          0.022         -0.016         -0.017          0.397          0.011          0.254          0.216         -0.002         -0.215          0.010          0.019         -0.042          0.026         -0.543         -0.051          0.242          0.655         -2.384          0.010         -0.074          0.029         -0.037         -0.016         -0.027         -0.012          0.010          0.407          0.012         -0.368         -0.039         -0.376         -0.013          0.320         -0.153          0.008         -0.190          0.046          0.038         -0.008          0.045         -0.125          0.100         -0.135         -0.485          0.087          0.028          0.292         -0.051          0.050         -0.136          0.025         -0.069          0.028         -0.034         -0.068          0.030         -0.099          0.072         -0.097         -0.271          0.010          0.122         -0.014         -0.019         -0.011          0.060         -0.107          0.076         -0.111         -0.689         -6.264          2.390         -0.372         -1.040         -3.233          0.040         -0.231         -2.012          0.038          0.057         -0.030         -0.044         -0.001         -0.298          0.183          0.186         -0.007          0.302          0.019         -0.011          0.085         -0.217         -0.447         -4.152         -0.991         -3.232         -0.565         -0.254         -0.094          0.093         -0.007         -0.110         -0.941         -8.522         -0.703         -0.506         -0.183         -0.155         -0.116         -1.256        -48.165