# Time	LEU-18	GLU-19	ASP-20	GLY-21	ALA-22	TYR-23	ARG-24	ILE-25	LYS-26	GLN-27	LYS-28	GLY-29	ILE-30	LEU-31	GLY-32	TYR-33	SER-34	GLN-35	ILE-36	GLY-37	ALA-38	GLY-39	VAL-40	TYR-41	LYS-42	GLU-43	GLY-44	THR-45	PHE-46	HIS-47	THR-48	MET-49	TRP-50	HIS-51	VAL-52	THR-53	ARG-54	GLY-55	ALA-56	VAL-57	LEU-58	MET-59	HIS-60	LYS-61	GLY-62	LYS-63	ARG-64	ILE-65	GLU-66	PRO-67	SER-68	TRP-69	ALA-70	ASP-71	VAL-72	LYS-73	LYS-74	ASP-75	LEU-76	ILE-77	SER-78	TYR-79	GLY-80	GLY-81	GLY-82	TRP-83	LYS-84	LEU-85	GLU-86	GLY-87	GLU-88	TRP-89	LYS-90	GLU-91	GLY-92	GLU-93	GLU-94	VAL-95	GLN-96	VAL-97	LEU-98	ALA-99	LEU-100	GLU-101	PRO-102	GLY-103	LYS-104	ASN-105	PRO-106	ARG-107	ALA-108	VAL-109	GLN-110	THR-111	LYS-112	PRO-113	GLY-114	LEU-115	PHE-116	LYS-117	THR-118	ASN-119	THR-120	GLY-121	THR-122	ILE-123	GLY-124	ALA-125	VAL-126	SER-127	LEU-128	ASP-129	PHE-130	SER-131	PRO-132	GLY-133	THR-134	SER-135	GLY-136	SER-137	PRO-138	ILE-139	VAL-140	ASP-141	LYS-142	LYS-143	GLY-144	LYS-145	VAL-146	VAL-147	GLY-148	LEU-149	TYR-150	GLY-151	ASN-152	GLY-153	VAL-154	VAL-155	THR-156	ARG-157	SER-158	GLY-159	ALA-160	TYR-161	VAL-162	SER-163	ALA-164	ILE-165	ALA-166	ASN-167	UNK1-168	
          0.000          0.032         -0.021         -0.036          0.023          0.011          0.002          0.889         -0.044          0.423         -0.029          0.024         -0.006         -0.001          0.001          0.001          0.005          0.051         -0.044          0.105         -0.213          0.152         -0.056          0.030         -0.011          0.069         -0.021          0.001         -0.024          0.011         -0.080          0.031         -1.103         -0.442         11.447         -0.464          0.035         -0.348         -0.044          0.027         -0.000          0.001         -0.000          0.001          0.005         -0.000          0.011         -0.014          0.007          0.018         -0.025         -0.014          0.053         -0.082          0.413          0.117         -0.131          0.060         20.044          0.106          0.040          0.023          0.044         -0.002          0.019         -0.004          0.007         -0.021          0.007         -0.049          0.018         -0.037          0.010          0.066         -0.081          0.013         -0.206         -0.204          0.022          0.000          0.027         -0.027          0.100         -0.011         -2.331          0.122          0.024          1.143         -0.107          0.060          0.314          0.004         -0.032         -0.031         -0.030          0.140          0.093         -0.032          0.020         -0.008          0.101          0.070         -0.015         -0.007         -0.008          0.037          0.025         -0.056          0.139         -0.219         -0.259          6.806         -1.166          4.184         -0.602          2.522          0.131          1.063          4.950         -0.021          0.107         -0.087          0.029         -0.039         -0.243          0.099          0.097          0.015          0.041          0.031          0.013         -0.063         -0.059          6.059          8.403         -0.401          7.003         -1.048          0.127         -0.067          0.285          0.054          0.013          0.090          3.547         -0.568          0.320          0.177          0.043         -0.056         -0.221         58.460
       1000.000         -0.034          0.013          0.025          0.015         -0.020          0.018          0.258         -0.041          0.013          0.010         -0.012          0.004          0.001          0.000          0.002         -0.007          0.051          0.042          0.166         -0.060          0.150         -0.037          0.020         -0.004         -0.043          0.043          0.002         -0.024          0.024         -0.043          0.060         -0.675         -0.108         14.501         -0.302          0.009         -2.329         -0.099          0.035          0.009         -0.027          0.008          0.007         -0.008         -0.003         -0.005         -0.049          0.020          0.041         -0.042         -0.015          0.055         -0.062          0.296          0.046         -0.123         -0.134          1.639          0.003          0.036          0.018          0.048          0.002          0.023         -0.008         -0.009         -0.111         -0.004          0.035          0.007          0.001          0.007          0.003         -0.017          0.003         -0.033         -0.027          0.006          0.008          0.031         -0.011          0.095         -0.053         -0.505          0.048          0.007          0.335         -0.035          0.019          0.147          0.010         -0.007          0.007         -0.000          0.036          0.014         -0.005          0.001          0.002          0.005          0.005         -0.004          0.003         -0.002          0.002         -0.002          0.001          0.020          0.004         -0.196          4.409          0.342          1.749         -0.526          2.427          0.083          0.977         -0.074          0.026          0.146         -0.056          0.017         -0.008         -0.042          0.032          0.026          0.006         -0.019          0.006          0.011         -0.017         -0.054          5.113          5.083          0.279         -0.153         -0.015         -0.001          0.001          0.016          0.001         -0.016          0.017          2.725         -0.009         -0.115          0.005          0.010         -0.000          0.015         38.811
       2000.000          0.020         -0.012         -0.044          0.003          0.042         -0.027          1.086         -0.070          0.404         -0.039          0.029         -0.005         -0.001          0.001         -0.007          0.028         -0.028          0.297         -0.142          0.057          0.058         -0.079          0.022         -0.006          0.049         -0.020          0.007         -0.021          0.044         -0.075          0.138         -0.694         -0.486          8.389         -0.117         -0.010          2.464         -0.036          0.020          0.003          0.006         -0.002          0.000          0.015          0.000          0.004         -0.007          0.004          0.016         -0.029         -0.019          0.053         -0.081          0.629          0.340         -0.270         -0.316         13.570          0.106          0.038          0.051          0.037         -0.004          0.014         -0.011          0.010         -0.023          0.010         -0.017          0.013         -0.034          0.012          0.039         -0.020          0.009         -0.097         -0.098          0.034          0.030          0.059         -0.059          0.133         -0.040         -1.220          0.184          0.025          0.731         -0.062          0.094          0.721          0.026         -0.007         -0.058         -0.021          0.087          0.041         -0.022          0.003          0.006          0.019         -0.006         -0.013          0.000         -0.003          0.012          0.003         -0.025          0.105         -0.114         -0.306          6.343          0.138          2.791          0.338          1.437          0.148          1.247          1.052         -0.032          0.228         -0.109          0.020         -0.022         -0.170          0.139          0.036          0.012          0.031          0.035          0.025         -0.041          0.151          3.651          6.777          0.314          4.727         -0.473          0.032          0.068          0.044          0.020         -0.027          0.053          2.415         -0.260         -0.342          0.061          0.046         -0.019          0.126         58.930
       3000.000          0.010         -0.015         -0.020          0.018          0.015          0.016          0.728         -0.076          0.191          0.043          0.025         -0.000         -0.004         -0.011         -0.008          0.003         -0.015         -0.007         -0.120         -0.114          0.167         -0.066          0.020         -0.005          0.025         -0.004          0.004         -0.018          0.033         -0.076          0.095         -0.773         -0.243         14.656         -0.210         -0.141          0.458         -0.056          0.009          0.008         -0.005         -0.002          0.007          0.024         -0.000         -0.003         -0.021          0.009          0.026         -0.038         -0.023          0.044         -0.076          0.428          0.081         -0.169         -0.173          9.635          0.040          0.035          0.026          0.036         -0.004          0.018         -0.006         -0.002         -0.045          0.008         -0.023          0.005         -0.029          0.025          0.033         -0.032          0.002         -0.134         -0.110          0.006         -0.005          0.050         -0.037          0.052         -0.094         -1.065          0.108          0.009          0.664         -0.074          0.064          0.627          0.014         -0.015         -0.008         -0.017          0.102          0.031         -0.039          0.000          0.007          0.022          0.035          0.007          0.024         -0.021          0.020          0.008         -0.017          0.056         -0.032         -0.223          7.688          0.535          3.318          0.857          3.150          0.069          0.721         -0.051         -0.064          0.256         -0.070          0.019         -0.027         -0.194          0.135          0.068          0.018          0.019          0.021          0.018         -0.022          0.075          2.779          4.788          0.142          0.016         -0.074          0.039          0.050          0.090          0.007         -0.050          0.114          1.935          0.011          0.002         -0.010          0.028         -0.013         -0.027         47.731
       4000.000          0.001         -0.005          0.003          0.020          0.003          0.032          0.545         -0.045          0.213          0.013          0.016         -0.000         -0.002          0.000          0.001          0.000          0.008         -0.011         -0.039         -0.059          0.135         -0.054          0.028         -0.008         -0.008          0.017          0.003         -0.020          0.011         -0.081         -0.009         -0.829         -0.313         14.707         -0.117         -0.009          3.713         -0.074          0.017          0.004         -0.006          0.008          0.005          0.005         -0.001         -0.005         -0.032          0.008          0.040         -0.031         -0.022          0.057         -0.068          0.445          0.141         -0.150         -0.157          8.723          0.046          0.026          0.023          0.042         -0.000          0.020         -0.000         -0.002         -0.080         -0.002          0.005          0.008         -0.019          0.000          0.019         -0.015          0.008         -0.066         -0.085          0.012          0.003          0.037         -0.011          0.089         -0.056         -1.020          0.097          0.022          0.262         -0.068          0.026          0.537          0.018         -0.014         -0.017          0.029          0.066          0.038         -0.019         -0.001          0.000          0.013          0.014          0.001          0.001         -0.011          0.012         -0.010          0.002          0.086         -0.120         -0.296          6.414          0.370          3.909          1.291          2.098          0.053          0.501         -0.643         -0.106          0.159         -0.044          0.031         -0.017         -0.135          0.102          0.021          0.007          0.011          0.017          0.015         -0.034          0.045          6.448          6.863          0.451          2.024         -0.430         -0.054          0.055          0.031         -0.002          0.011          0.012          2.471         -0.282         -0.269          0.071          0.031         -0.012          0.070         50.891
       5000.000          0.031         -0.064         -0.102          0.012          0.054         -0.013          1.325         -0.122          0.358          0.016          0.051         -0.002         -0.002         -0.010         -0.007          0.037         -0.001          0.166         -0.300          0.137          0.046         -0.066          0.014         -0.013          0.087         -0.047          0.006         -0.007          0.040         -0.065          0.113         -0.598         -0.258         15.759         -0.004         -0.004         -0.040         -0.040          0.014         -0.003          0.015         -0.011         -0.001          0.095          0.002          0.025          0.023          0.003         -0.019         -0.003         -0.002          0.014         -0.040          0.259          0.106         -0.071         -0.023          7.300          0.046         -0.003          0.028          0.003         -0.007          0.000         -0.011          0.005          0.066          0.017         -0.081          0.015         -0.055          0.006          0.013         -0.026          0.008         -0.113         -0.132          0.028         -0.012          0.081         -0.102          0.146         -0.120         -1.435          0.211          0.038          0.889         -0.094          0.076          0.836          0.037         -0.022         -0.010         -0.014          0.084          0.037         -0.025          0.009          0.010          0.041          0.065          0.057          0.031         -0.027          0.012         -0.001         -0.025          0.066         -0.029         -0.275          6.613          0.358          4.207          1.142          2.418          0.118          1.471          2.289         -0.157          0.294         -0.082          0.005         -0.026         -0.256          0.168          0.077          0.014          0.046          0.050          0.024         -0.038          0.105          3.802          7.763          0.199          3.897         -0.571          0.203         -0.104          0.122         -0.008          0.038         -0.059          3.474         -0.215         -0.270         -0.032          0.024         -0.016          0.067         59.387
       6000.000          0.018         -0.035         -0.046          0.008          0.029         -0.012          1.003         -0.079          0.207         -0.035          0.032          0.003          0.000          0.001         -0.007          0.031         -0.039         -0.016          0.089         -0.086          0.078         -0.060          0.015          0.000          0.078         -0.038          0.005         -0.011          0.028         -0.042          0.117         -0.345         -0.053         14.671         -0.216          0.027         -0.654         -0.024         -0.002          0.004          0.004         -0.000          0.011         -0.000          0.000          0.000         -0.003          0.004          0.001         -0.011         -0.006          0.021         -0.030          0.145          0.050         -0.053         -0.005          2.694          0.022         -0.009          0.022          0.021         -0.004          0.002         -0.006          0.006          0.039          0.013         -0.087          0.012         -0.031          0.009          0.051         -0.028          0.014         -0.101         -0.142          0.012          0.017          0.033         -0.093          0.163         -0.057         -1.499          0.159          0.025          0.822         -0.061          0.053          0.783          0.036         -0.010          0.007          0.040          0.068          0.043         -0.026         -0.000          0.009          0.013          0.015         -0.001         -0.002         -0.018          0.019          0.010         -0.016          0.054          0.017         -0.286          5.717          0.403          3.034          0.201          2.860          0.046          1.410         -0.390          0.039          0.185         -0.068          0.017         -0.030         -0.192          0.142          0.030          0.019          0.044          0.030          0.014         -0.025          0.009          3.112          7.599          0.467          2.617          1.324          0.557         -0.045          0.097          0.036         -0.055          0.096          1.766          0.606         -0.141         -0.075         -0.016         -0.049         -0.086         52.703
       7000.000          0.012         -0.020         -0.037          0.007          0.020          0.002          0.740         -0.069          0.059          0.020          0.008         -0.003         -0.003          0.001          0.007          0.005          0.026          0.083          0.619          0.092          0.077         -0.035          0.016         -0.005          0.070         -0.026          0.005         -0.009          0.025         -0.054          0.121         -0.324         -0.063         15.770          0.150          0.042         -0.039         -0.052         -0.005          0.013          0.001          0.000          0.003          0.006         -0.001         -0.001         -0.017          0.009          0.019         -0.026         -0.013          0.028         -0.049          0.177          0.069         -0.072         -0.055          3.061          0.026         -0.006          0.023          0.033         -0.004          0.006         -0.005          0.016         -0.002          0.013         -0.081          0.008         -0.029          0.013          0.073         -0.022          0.006         -0.104         -0.118          0.023          0.020          0.071         -0.098          0.095         -0.015         -1.403          0.083          0.004          0.596         -0.084          0.054          0.643          0.032         -0.025          0.018         -0.016          0.049          0.030         -0.022          0.002          0.003          0.018          0.008         -0.001         -0.004         -0.013          0.001          0.013         -0.010          0.040          0.020         -0.243          4.933          0.661          2.933          1.571          4.573          0.174          1.063          0.340          0.022          0.328         -0.074          0.007         -0.025         -0.170          0.131          0.059          0.016          0.054          0.033          0.009         -0.024          0.045          2.005          3.585          0.162          0.047         -0.043         -0.029          0.019          0.059          0.005          0.011         -0.004          1.577         -0.055         -0.261         -0.065         -0.019         -0.030          0.004         41.685
       8000.000          0.002         -0.003         -0.001          0.017          0.022          0.007          0.709         -0.073          0.112          0.017          0.010          0.000         -0.001          0.001         -0.001         -0.007          0.048          0.076          0.202          0.042          0.155         -0.070          0.020         -0.004          0.005          0.010          0.004         -0.024          0.026         -0.070          0.101         -0.630         -0.155         16.368         -0.156          0.011          3.779         -0.091          0.004          0.006         -0.011          0.007          0.005         -0.005         -0.002         -0.026         -0.033          0.015          0.034         -0.038         -0.020          0.056         -0.071          0.367          0.086         -0.124         -0.202          4.920          0.033          0.028         -0.005          0.045          0.006          0.017          0.005          0.009         -0.037          0.003         -0.012          0.010         -0.009          0.009          0.031         -0.014          0.009         -0.071         -0.104          0.006          0.000          0.029         -0.045          0.126         -0.077         -1.220          0.149          0.034          0.683         -0.094          0.059          0.740          0.019          0.001         -0.039          0.016          0.067          0.021         -0.016          0.002          0.004          0.011          0.024         -0.001          0.010         -0.011          0.007         -0.009          0.002          0.039         -0.022         -0.278          7.179          0.895          3.489          0.678          2.907          0.112          1.290         -0.572         -0.005          0.210         -0.085          0.016         -0.019         -0.113          0.070          0.062          0.006          0.014          0.019          0.013         -0.040          0.139          4.574          3.738          0.312          0.924         -0.314          0.015          0.011          0.053          0.034         -0.003          0.054          1.738         -0.247         -0.132          0.002          0.023         -0.032          0.212         44.969
       9000.000          0.004         -0.020         -0.006          0.026          0.011          0.006          0.694         -0.072          0.221         -0.024          0.023          0.002          0.001         -0.006         -0.005          0.016         -0.038          0.106         -0.064         -0.094          0.130         -0.088          0.010         -0.004         -0.013          0.018          0.002         -0.033          0.031         -0.132          0.167         -1.267         -0.712          8.821         -0.440         -0.021          2.610         -0.061          0.033          0.004          0.004          0.000         -0.002          0.009         -0.000         -0.001         -0.011          0.009          0.034         -0.045         -0.021          0.083         -0.103          0.604          0.314         -0.170         -0.305         22.081          0.142          0.059          0.035          0.052         -0.008          0.026         -0.000          0.004         -0.051         -0.006          0.002          0.011         -0.019         -0.001          0.010         -0.009          0.004         -0.057         -0.086          0.004          0.014          0.042         -0.040          0.097         -0.080         -1.139          0.149          0.011          0.605         -0.032          0.048          0.738          0.001          0.006         -0.029         -0.009          0.042          0.032         -0.013          0.003          0.012          0.009          0.031          0.017          0.022         -0.012          0.012         -0.016         -0.018          0.090         -0.151         -0.193          6.754          0.376          3.919          1.386          2.876          0.133          0.945         -0.903         -0.147          0.200         -0.101          0.020         -0.007         -0.101          0.078          0.047          0.010          0.006          0.017          0.033         -0.053          0.112          2.219          8.724          0.507          4.376          1.383          0.313         -0.102          0.092         -0.022         -0.020          0.008          3.604         -0.287         -0.068         -0.047          0.053         -0.074          0.472         50.366
      10000.000          0.003         -0.013          0.002          0.014          0.028          0.003          0.772         -0.083          0.184         -0.009          0.026          0.002         -0.001         -0.003         -0.008          0.014         -0.020         -0.078         -0.179          0.016          0.125         -0.097          0.013         -0.007         -0.016          0.017          0.003         -0.019          0.034         -0.086          0.116         -0.981         -0.523         10.580         -0.533         -0.197          2.087         -0.066          0.018          0.002         -0.001         -0.001          0.004          0.006         -0.000         -0.001         -0.015          0.009          0.024         -0.031         -0.023          0.058         -0.076          0.480          0.160         -0.167         -0.152         17.488          0.117          0.053          0.026          0.041         -0.000          0.022         -0.009          0.012         -0.078         -0.005         -0.002          0.007         -0.009          0.002          0.015         -0.014          0.001         -0.065         -0.094          0.009          0.010          0.043         -0.130          0.139         -0.075         -1.318          0.127          0.014          0.724         -0.041          0.061          0.703          0.030         -0.013          0.005         -0.009          0.036          0.037         -0.027          0.012         -0.005          0.038          0.104          0.050          0.004         -0.063          0.028          0.002         -0.038          0.101         -0.158         -0.133          3.210          0.074          3.612          0.602          3.174          0.068          1.586          0.149         -0.083          0.277         -0.094          0.017         -0.011         -0.087          0.121          0.012          0.008          0.005          0.014          0.027         -0.075          0.115          2.045          8.986          0.710          4.437          0.443          0.736         -0.171          0.170          0.013          0.145         -0.475          2.459         -0.935          0.001          0.150          0.048         -0.035         -0.071         54.334
      11000.000          0.004         -0.012         -0.008          0.007          0.021         -0.014          0.701         -0.057          0.138         -0.000          0.032         -0.001         -0.001         -0.005         -0.004          0.022         -0.035          0.169         -0.233          0.071          0.020         -0.069          0.006         -0.002         -0.008          0.010          0.003         -0.008          0.020         -0.047          0.094         -0.539         -0.263         11.564         -0.092         -0.001          4.033         -0.036          0.015          0.001          0.004         -0.003         -0.003          0.008          0.000         -0.001         -0.006          0.004          0.017         -0.018         -0.013          0.032         -0.056          0.454          0.090         -0.170         -0.131          6.432          0.064          0.027          0.024          0.025         -0.002          0.009         -0.004          0.007         -0.038          0.003          0.005          0.005          0.049          0.004         -0.002          0.000         -0.001         -0.004         -0.022          0.003          0.005          0.017         -0.039          0.085         -0.105         -0.719          0.153          0.007          0.259         -0.046          0.030          0.354         -0.004         -0.002          0.001          0.002          0.011          0.001         -0.004          0.005          0.008         -0.028          0.044          0.011          0.013         -0.009          0.009         -0.023          0.014          0.037         -0.079         -0.270          9.309          1.951          3.898          2.298          2.113          0.065          1.036          0.543         -0.077          0.237         -0.049         -0.004         -0.003         -0.028          0.027          0.005          0.004         -0.001          0.010          0.013         -0.045          0.103          2.744          6.139          0.269          6.040         -0.148          0.137          0.059          0.059         -0.029         -0.249          0.033          2.340         -0.415         -0.229          0.110          0.019          0.008          0.275         49.430