# Time	LEU-18	GLU-19	ASP-20	GLY-21	ALA-22	TYR-23	ARG-24	ILE-25	LYS-26	GLN-27	LYS-28	GLY-29	ILE-30	LEU-31	GLY-32	TYR-33	SER-34	GLN-35	ILE-36	GLY-37	ALA-38	GLY-39	VAL-40	TYR-41	LYS-42	GLU-43	GLY-44	THR-45	PHE-46	HIS-47	THR-48	MET-49	TRP-50	HIS-51	VAL-52	THR-53	ARG-54	GLY-55	ALA-56	VAL-57	LEU-58	MET-59	HIS-60	LYS-61	GLY-62	LYS-63	ARG-64	ILE-65	GLU-66	PRO-67	SER-68	TRP-69	ALA-70	ASP-71	VAL-72	LYS-73	LYS-74	ASP-75	LEU-76	ILE-77	SER-78	TYR-79	GLY-80	GLY-81	GLY-82	TRP-83	LYS-84	LEU-85	GLU-86	GLY-87	GLU-88	TRP-89	LYS-90	GLU-91	GLY-92	GLU-93	GLU-94	VAL-95	GLN-96	VAL-97	LEU-98	ALA-99	LEU-100	GLU-101	PRO-102	GLY-103	LYS-104	ASN-105	PRO-106	ARG-107	ALA-108	VAL-109	GLN-110	THR-111	LYS-112	PRO-113	GLY-114	LEU-115	PHE-116	LYS-117	THR-118	ASN-119	THR-120	GLY-121	THR-122	ILE-123	GLY-124	ALA-125	VAL-126	SER-127	LEU-128	ASP-129	PHE-130	SER-131	PRO-132	GLY-133	THR-134	SER-135	GLY-136	SER-137	PRO-138	ILE-139	VAL-140	ASP-141	LYS-142	LYS-143	GLY-144	LYS-145	VAL-146	VAL-147	GLY-148	LEU-149	TYR-150	GLY-151	ASN-152	GLY-153	VAL-154	VAL-155	THR-156	ARG-157	SER-158	GLY-159	ALA-160	TYR-161	VAL-162	SER-163	ALA-164	ILE-165	ALA-166	ASN-167	UNK1-168	
          0.000         -0.002          0.086          0.034         -0.023         -0.019          0.021         -0.718          0.012         -0.418          0.009         -0.050          0.002          0.003          0.003         -0.008          0.011         -0.088         -0.124         -0.263         -0.086         -0.147          0.039         -0.026          0.014          0.008         -0.052         -0.007          0.023         -0.033          0.045         -0.147         -0.266         -0.031        -14.077         -0.402         -0.096          1.349          0.020         -0.012         -0.010         -0.013          0.002         -0.019         -0.076         -0.003          0.055          0.151         -0.010         -0.204          0.025          0.007         -0.033          0.054         -0.723         -0.219          0.358          0.214         -7.070         -0.135         -0.032         -0.042         -0.039          0.009         -0.014          0.013         -0.010          0.144         -0.016         -0.017         -0.022         -0.040         -0.023         -0.025          0.045         -0.002          0.087          0.156         -0.013         -0.008         -0.074          0.004         -0.180         -0.037          1.338         -0.130         -0.010         -0.814          0.059         -0.034         -0.400         -0.005         -0.001          0.020         -0.009         -0.122         -0.037         -0.006         -0.003         -0.055         -0.029         -0.014         -0.005          0.017          0.004         -0.013         -0.020         -0.029         -0.093         -0.093         -0.121        -14.109         -1.118         -2.028         -1.870         -9.010         -0.546         -1.872         -3.306         -0.180         -0.225          0.102         -0.056          0.016          0.126         -0.128         -0.047         -0.008         -0.012         -0.032         -0.043          0.068         -0.179         -8.641         -7.294         -1.644         -5.620         -0.870         -0.484         -0.032         -0.046         -0.023         -0.022         -0.260         -8.805         -0.793         -0.584         -0.171         -0.072         -0.010         -0.100        -93.726
       1000.000          0.006          0.059          0.011         -0.017          0.004          0.005         -0.528          0.018         -0.269         -0.051         -0.026          0.002          0.003          0.004          0.005          0.010         -0.072         -0.108         -0.220         -0.097         -0.115          0.026         -0.024          0.001          0.028         -0.065         -0.009          0.018         -0.038          0.021         -0.126         -0.275         -0.067        -14.170         -0.613         -0.102          0.269          0.007         -0.023         -0.010         -0.012         -0.007         -0.008         -0.012         -0.002          0.065          0.146         -0.016         -0.174          0.017          0.002         -0.032          0.036         -0.485         -0.100          0.326          0.284         -2.307         -0.097         -0.035         -0.039         -0.030          0.005         -0.006          0.015         -0.017          0.140         -0.017         -0.035         -0.019         -0.053         -0.019         -0.002         -0.026         -0.001          0.045          0.064         -0.014         -0.017         -0.060          0.005         -0.107          0.023          0.664         -0.091         -0.011         -0.653          0.038         -0.022         -0.352         -0.010         -0.002          0.001         -0.009         -0.037         -0.022          0.011         -0.009         -0.024          0.046         -0.018          0.004         -0.006         -0.005         -0.006         -0.013         -0.002         -0.054         -0.059          0.031         -9.056         -0.637         -0.668         -0.934         -8.740         -0.486         -1.082         -2.051         -0.243         -0.167          0.036         -0.048          0.005          0.067         -0.076         -0.041         -0.007          0.017         -0.025         -0.030         -0.003         -0.099         -5.465         -5.467         -0.702         -0.915         -0.236         -0.218         -0.068          0.042         -0.029         -0.070         -0.054         -6.868         -0.320         -0.129         -0.032         -0.034         -0.010         -0.126        -64.675
       2000.000         -0.105          0.192          0.149         -0.019         -0.035          0.020         -1.246          0.040         -0.722          0.079         -0.225          0.003          0.000          0.005          0.011         -0.002         -0.000         -0.342         -0.001         -0.268         -0.061          0.068         -0.025          0.004         -0.082          0.037         -0.012          0.021         -0.057          0.046         -0.197         -0.312          0.075         -8.681         -0.555         -0.067          1.078          0.003         -0.014          0.001         -0.026          0.007          0.007         -0.210         -0.009         -0.064          0.002         -0.004         -0.062          0.018          0.005         -0.030          0.039         -0.756         -0.261          0.467          0.449         -6.933         -0.153         -0.034         -0.064         -0.028          0.009         -0.002          0.023         -0.017          0.045         -0.024          0.014         -0.025         -0.008         -0.027          0.003         -0.000          0.002          0.080          0.117         -0.028         -0.034         -0.078          0.032         -0.182          0.012          1.184         -0.191         -0.011         -0.949          0.056         -0.070         -0.794         -0.023         -0.015          0.036         -0.004         -0.061         -0.022          0.012         -0.006         -0.027          0.080          0.006          0.011          0.004         -0.002         -0.002         -0.018         -0.021         -0.060         -0.142         -0.136         -7.877         -1.352         -0.946         -1.333         -7.833         -0.545         -2.013         -4.903         -0.165         -0.342          0.089         -0.049          0.002          0.187         -0.194         -0.094         -0.000         -0.131         -0.040         -0.043          0.051         -0.303         -7.937         -6.313         -1.235         -3.356         -0.699         -0.388         -0.055          0.101         -0.000         -0.025         -0.083         -5.931         -0.631         -0.221         -0.116         -0.084         -0.037         -0.475        -75.399
       3000.000         -0.096          0.057          0.066         -0.018         -0.029         -0.005         -0.769          0.025         -0.330         -0.019         -0.103         -0.031         -0.019         -0.002          0.011         -0.002         -0.000         -0.193         -0.012         -0.185         -0.158          0.054         -0.024          0.003         -0.015         -0.015         -0.011          0.017         -0.046          0.038         -0.171         -0.161         -0.057        -13.319         -1.032         -0.062          0.961          0.017         -0.002         -0.011         -0.017          0.006         -0.013         -0.062         -0.005          0.029          0.084         -0.011         -0.155          0.026          0.012         -0.030          0.043         -0.709         -0.185          0.434          0.372         -5.300         -0.129         -0.038         -0.045         -0.026          0.009         -0.009          0.016         -0.022          0.104         -0.023         -0.016         -0.011         -0.049         -0.027         -0.009          0.035          0.001          0.095          0.076         -0.016          0.005         -0.117          0.037         -0.142          0.058          0.630         -0.182         -0.012         -0.527          0.044         -0.051         -0.494         -0.023         -0.003         -0.000         -0.006         -0.048         -0.027          0.012         -0.008         -0.033          0.057         -0.020          0.027         -0.001         -0.012         -0.005         -0.017         -0.018         -0.077         -0.062         -0.138        -11.882         -2.089         -0.076         -1.779        -11.050         -0.462         -1.490         -1.056         -0.268         -0.383          0.092         -0.055          0.017          0.164         -0.140         -0.080         -0.007         -0.071         -0.035         -0.038          0.029         -0.198         -4.558         -5.230         -0.457         -0.934         -0.234         -0.281         -0.051          0.076         -0.006         -0.040         -0.163         -5.202         -0.441         -0.273          0.016         -0.032         -0.018         -0.241        -71.284
       4000.000         -0.096          0.114          0.090         -0.024         -0.030         -0.003         -0.897          0.042         -0.542         -0.086         -0.212         -0.027         -0.016         -0.017         -0.000          0.015         -0.031         -0.208          0.039         -0.218         -0.087          0.046         -0.023          0.010         -0.010         -0.026         -0.012          0.019         -0.043          0.042         -0.106         -0.037          0.078        -11.943         -0.641         -0.072          0.170          0.022         -0.017          0.002         -0.023         -0.004         -0.001         -0.192         -0.007         -0.036          0.057         -0.005         -0.109          0.015          0.006         -0.026          0.037         -0.814         -0.215          0.498          0.450         -5.406         -0.118         -0.022         -0.046         -0.030          0.008         -0.003          0.017         -0.006          0.105         -0.022         -0.040         -0.023         -0.106         -0.026          0.103         -0.079          0.003          0.014          0.072         -0.019         -0.012         -0.095         -0.013         -0.191          0.060          1.081         -0.165         -0.023         -0.627          0.059         -0.041         -0.686         -0.022         -0.003          0.014         -0.048          0.005         -0.025         -0.001         -0.008         -0.040          0.231         -0.001          0.053          0.013         -0.033          0.002         -0.013         -0.037         -0.036         -0.160         -0.034        -12.044         -1.712         -1.584         -2.747        -10.438         -0.588         -1.497         -1.234         -0.236         -0.314          0.049         -0.057          0.006          0.126         -0.135         -0.057          0.001         -0.031         -0.034         -0.045          0.047         -0.224         -7.855         -6.402         -0.935         -1.436         -0.758         -0.414         -0.084          0.285         -0.017         -0.094         -0.145         -6.258         -0.874         -0.211         -0.036         -0.059         -0.032         -0.438        -80.035
       5000.000         -0.175          0.122          0.160         -0.024         -0.046          0.012         -1.209          0.073         -0.514          0.029         -0.260         -0.011         -0.006          0.015         -0.004         -0.011         -0.054         -0.228          0.046         -0.286         -0.093          0.059         -0.026          0.007         -0.041          0.009         -0.014          0.017         -0.057          0.058         -0.183         -0.682          0.071        -13.903         -0.848         -0.090          0.581          0.019         -0.031         -0.004         -0.029          0.016          0.001         -0.268         -0.009         -0.034          0.036         -0.011         -0.084         -0.001         -0.005         -0.023          0.045         -0.805         -0.200          0.472          0.516         -5.010         -0.132         -0.015         -0.047         -0.012          0.012         -0.004          0.023         -0.019          0.031         -0.029          0.011         -0.026         -0.108         -0.028          0.021         -0.015          0.005          0.056          0.084         -0.025          0.001         -0.118          0.092         -0.173          0.061          0.990         -0.221         -0.028         -0.804          0.062         -0.057         -0.722         -0.031          0.003          0.003         -0.022         -0.046         -0.015         -0.002         -0.003         -0.047          0.144         -0.021          0.006         -0.027         -0.026         -0.010         -0.020         -0.028         -0.048         -0.156         -0.142        -12.102         -1.531          0.685         -1.985        -12.599         -0.550         -2.142         -4.659         -0.139         -0.409          0.074         -0.045          0.009          0.188         -0.166         -0.090          0.003         -0.089         -0.047         -0.053          0.066         -0.307         -8.405         -5.612         -1.701         -4.116         -1.072         -0.738         -0.066          0.171         -0.032         -0.093         -0.193         -9.502         -0.859         -0.138          0.009         -0.068         -0.080         -0.805        -93.721
       6000.000         -0.084          0.050          0.090         -0.017         -0.025          0.025         -0.749          0.015         -0.160          0.067          0.020         -0.005         -0.001          0.004         -0.001          0.005         -0.028         -0.175         -0.122         -0.235         -0.087          0.050         -0.026          0.000         -0.058          0.006         -0.010          0.020         -0.033          0.027         -0.168         -0.380         -0.038        -12.424         -0.770         -0.124          1.388          0.012          0.010         -0.018         -0.014          0.003         -0.009         -0.030         -0.002          0.030          0.166         -0.015         -0.175          0.019          0.002         -0.028          0.033         -0.535         -0.123          0.363          0.230         -3.470         -0.100          0.000         -0.041         -0.033          0.008         -0.005          0.013         -0.015          0.035         -0.020          0.056         -0.016          0.011         -0.021         -0.048          0.029         -0.005          0.092          0.148         -0.013         -0.018         -0.066          0.077         -0.159         -0.000          0.703         -0.161         -0.016         -0.524          0.023         -0.039         -0.535         -0.031         -0.005         -0.001         -0.037         -0.103         -0.034          0.006         -0.006         -0.042         -0.006         -0.035         -0.001         -0.018         -0.006         -0.009         -0.015         -0.024         -0.080         -0.138         -0.114         -9.898         -1.401         -2.036         -1.858         -9.267         -0.474         -1.582         -3.105         -0.273         -0.247          0.048         -0.044          0.014          0.163         -0.158         -0.074         -0.008         -0.072         -0.033         -0.038          0.030         -0.163         -5.262         -6.439         -0.971         -2.343         -1.669         -0.932         -0.049         -0.030         -0.017         -0.055         -0.129         -6.679         -0.984         -0.337          0.017         -0.017          0.023         -0.259        -75.446
       7000.000         -0.114          0.102          0.115         -0.013         -0.020          0.002         -0.736          0.020         -0.289         -0.075         -0.061         -0.035         -0.030          0.011          0.004         -0.004         -0.017         -0.194         -0.025         -0.217         -0.078          0.021         -0.021          0.001         -0.108          0.058         -0.009          0.005         -0.038          0.022         -0.162         -0.359         -0.064        -13.335         -1.525         -0.143          0.327         -0.003          0.005         -0.007         -0.021          0.004         -0.004         -0.100         -0.005         -0.013          0.026         -0.006         -0.104          0.011          0.003         -0.015          0.028         -0.359         -0.095          0.262          0.212         -2.560         -0.085         -0.014         -0.037         -0.024          0.006          0.001          0.011         -0.027          0.003         -0.020          0.102         -0.010          0.032         -0.014         -0.082          0.036         -0.003          0.099          0.113         -0.026         -0.027         -0.097          0.068         -0.101         -0.021          0.528         -0.184         -0.022         -0.297          0.046         -0.043         -0.420         -0.031          0.012         -0.011          0.003         -0.029         -0.025          0.016         -0.011         -0.016          0.097         -0.013          0.011          0.003         -0.010         -0.011         -0.027         -0.005         -0.075         -0.015         -0.006         -8.686         -1.135         -1.460         -2.067         -9.481         -0.933         -1.449         -2.051         -0.244         -0.262          0.037         -0.039          0.011          0.178         -0.144         -0.094         -0.009         -0.100         -0.034         -0.027          0.028         -0.102         -3.451         -3.635         -0.513         -0.757         -0.341         -0.202         -0.067          0.164         -0.027         -0.064         -0.025         -6.049         -0.375         -0.081          0.060          0.005          0.009         -0.223        -64.003
       8000.000         -0.123          0.140          0.131         -0.023         -0.033          0.014         -0.993          0.039         -0.436          0.022         -0.187         -0.012         -0.003         -0.013         -0.004          0.023         -0.114         -0.227         -0.070         -0.271         -0.128          0.062         -0.025          0.004         -0.084          0.034         -0.012          0.021         -0.046          0.029         -0.174         -0.181         -0.090        -13.999         -1.326         -0.145          0.118         -0.004         -0.018         -0.005         -0.024          0.002         -0.025         -0.125         -0.005          0.034          0.006         -0.011         -0.125          0.009         -0.003         -0.022          0.033         -0.581         -0.140          0.381          0.320         -3.387         -0.101         -0.026         -0.022         -0.019         -0.010         -0.012          0.011         -0.021          0.025         -0.023          0.054         -0.023         -0.058         -0.026         -0.032         -0.001         -0.001          0.061          0.147         -0.013          0.009         -0.079          0.022         -0.188          0.046          1.099         -0.212         -0.033         -0.847          0.066         -0.054         -0.812         -0.026         -0.012          0.035         -0.042         -0.013         -0.021          0.008         -0.006         -0.026          0.148         -0.001          0.038         -0.032         -0.022         -0.007         -0.013         -0.026         -0.056         -0.110         -0.069        -11.136         -2.058          2.075         -2.438         -9.922         -0.662         -1.955         -2.634         -0.226         -0.277          0.084         -0.045          0.013          0.149         -0.108         -0.071          0.001         -0.074         -0.038         -0.039          0.034         -0.252         -7.518         -4.148         -0.690         -0.874         -0.318         -0.195         -0.050          0.234         -0.009         -0.056         -0.115         -4.953         -0.572         -0.200          0.026         -0.032          0.008         -0.485        -72.624
       9000.000         -0.112          0.136          0.082         -0.021         -0.032          0.025         -0.892          0.050         -0.419          0.041         -0.140         -0.034         -0.033          0.014          0.013         -0.007          0.008         -0.240         -0.019         -0.144         -0.105          0.066         -0.024         -0.002         -0.002         -0.024         -0.006          0.028         -0.040          0.057         -0.199         -0.351         -0.022        -12.006         -0.643         -0.075          1.328          0.009         -0.012         -0.001         -0.026          0.001          0.003         -0.114         -0.007         -0.025         -0.072         -0.003         -0.097          0.016          0.008         -0.036          0.040         -0.663         -0.221          0.386          0.466         -7.072         -0.151         -0.037         -0.047         -0.029          0.009         -0.007          0.016         -0.007          0.078         -0.016         -0.030         -0.025         -0.050         -0.024          0.057         -0.054          0.005          0.002          0.105         -0.005         -0.021         -0.080          0.036         -0.160          0.059          0.951         -0.179         -0.018         -0.697          0.022         -0.043         -0.752         -0.005         -0.021          0.019         -0.005         -0.043         -0.013         -0.004          0.000         -0.045          0.104         -0.052         -0.066         -0.045         -0.021         -0.008         -0.016         -0.046         -0.041         -0.140         -0.088        -15.313         -1.531         -0.927         -2.205        -10.586         -0.531         -1.829         -2.899         -0.165         -0.346          0.097         -0.050         -0.002          0.076         -0.102         -0.025         -0.009          0.004         -0.035         -0.052          0.051         -0.339         -6.737         -7.337         -1.271         -3.132         -2.694         -1.141         -0.033          0.074         -0.005         -0.122         -0.129         -7.649         -1.015         -0.476         -0.040         -0.084          0.018         -0.675        -91.956
      10000.000         -0.024          0.036         -0.003         -0.019         -0.013         -0.011         -0.634          0.047         -0.307         -0.012         -0.118         -0.025         -0.013          0.003          0.017         -0.001          0.007         -0.008          0.117         -0.116         -0.150          0.057         -0.022          0.005          0.062         -0.066         -0.006          0.015         -0.036          0.043         -0.137         -0.261         -0.019        -12.622         -0.603          0.042          1.363          0.022         -0.021         -0.000         -0.014          0.000         -0.002         -0.044         -0.004          0.019          0.007         -0.008         -0.104          0.020          0.005         -0.038          0.039         -0.522         -0.152          0.283          0.248         -6.459         -0.122         -0.053         -0.030         -0.039          0.003         -0.013          0.013         -0.023          0.140         -0.007         -0.047         -0.014         -0.081         -0.010          0.014         -0.013         -0.001         -0.004          0.020         -0.012         -0.023         -0.071          0.052         -0.125          0.018          0.607         -0.157         -0.016         -0.423          0.011         -0.039         -0.393         -0.020         -0.003         -0.004         -0.009          0.020         -0.020          0.002         -0.012         -0.040         -0.050         -0.085         -0.120         -0.019          0.012         -0.017         -0.041         -0.003         -0.080         -0.070         -0.113        -10.269         -1.430          2.455         -2.645         -9.381         -0.611         -1.882         -0.541         -0.119         -0.260          0.037         -0.050         -0.005          0.014         -0.043         -0.000         -0.006          0.043         -0.014         -0.035          0.050         -0.196         -5.548         -9.154         -2.067         -6.455         -2.667         -2.388         -0.083         -0.272         -0.035         -0.161         -0.155         -5.485         -0.786         -0.558         -0.213         -0.080          0.009         -0.114        -82.749
      11000.000         -0.026          0.049          0.002         -0.009         -0.013          0.005         -0.655          0.032         -0.377          0.010         -0.239         -0.052         -0.033         -0.011          0.023         -0.015          0.024         -0.155          0.106         -0.145         -0.046          0.048         -0.013          0.002          0.088         -0.089         -0.005          0.005         -0.030          0.024         -0.115         -0.278          0.013        -13.613         -0.561         -0.054          0.023          0.009         -0.024          0.007         -0.020          0.004          0.009         -0.048         -0.005         -0.010         -0.056         -0.001         -0.060          0.012          0.008         -0.020          0.033         -0.647         -0.128          0.383          0.374         -3.611         -0.103         -0.037         -0.035         -0.027          0.003         -0.004          0.011         -0.013          0.122         -0.016         -0.105         -0.011         -0.314         -0.023          0.165         -0.160          0.004         -0.164         -0.153         -0.011         -0.020         -0.050          0.014         -0.118          0.048          0.143         -0.194         -0.015         -0.182          0.029         -0.024         -0.098         -0.002         -0.000         -0.007         -0.013          0.182          0.002         -0.016         -0.006         -0.048          0.175         -0.031         -0.041         -0.045         -0.022         -0.002         -0.010         -0.042         -0.015         -0.166         -0.191        -11.856         -3.074         -0.341         -3.673        -10.341         -0.547         -1.882         -1.983         -0.106         -0.261          0.024         -0.027         -0.009         -0.119          0.119          0.077          0.002          0.079         -0.019         -0.029          0.040         -0.192         -5.194         -5.945         -1.091         -3.710         -2.005         -1.094         -0.030          0.096          0.001          0.001         -0.157         -5.288         -0.840         -0.391         -0.121         -0.044         -0.027         -0.590        -82.045