# Time	LEU-18	GLU-19	ASP-20	GLY-21	ALA-22	TYR-23	ARG-24	ILE-25	LYS-26	GLN-27	LYS-28	GLY-29	ILE-30	LEU-31	GLY-32	TYR-33	SER-34	GLN-35	ILE-36	GLY-37	ALA-38	GLY-39	VAL-40	TYR-41	LYS-42	GLU-43	GLY-44	THR-45	PHE-46	HIS-47	THR-48	MET-49	TRP-50	HIS-51	VAL-52	THR-53	ARG-54	GLY-55	ALA-56	VAL-57	LEU-58	MET-59	HIS-60	LYS-61	GLY-62	LYS-63	ARG-64	ILE-65	GLU-66	PRO-67	SER-68	TRP-69	ALA-70	ASP-71	VAL-72	LYS-73	LYS-74	ASP-75	LEU-76	ILE-77	SER-78	TYR-79	GLY-80	GLY-81	GLY-82	TRP-83	LYS-84	LEU-85	GLU-86	GLY-87	GLU-88	TRP-89	LYS-90	GLU-91	GLY-92	GLU-93	GLU-94	VAL-95	GLN-96	VAL-97	LEU-98	ALA-99	LEU-100	GLU-101	PRO-102	GLY-103	LYS-104	ASN-105	PRO-106	ARG-107	ALA-108	VAL-109	GLN-110	THR-111	LYS-112	PRO-113	GLY-114	LEU-115	PHE-116	LYS-117	THR-118	ASN-119	THR-120	GLY-121	THR-122	ILE-123	GLY-124	ALA-125	VAL-126	SER-127	LEU-128	ASP-129	PHE-130	SER-131	PRO-132	GLY-133	THR-134	SER-135	GLY-136	SER-137	PRO-138	ILE-139	VAL-140	ASP-141	LYS-142	LYS-143	GLY-144	LYS-145	VAL-146	VAL-147	GLY-148	LEU-149	TYR-150	GLY-151	ASN-152	GLY-153	VAL-154	VAL-155	THR-156	ARG-157	SER-158	GLY-159	ALA-160	TYR-161	VAL-162	SER-163	ALA-164	ILE-165	ALA-166	ASN-167	UNK1-168	
          0.000         -0.055          0.026          0.044          0.022         -0.055          0.064         -0.283         -0.001         -0.083          0.015         -0.012          0.001          0.000         -0.001          0.001         -0.011         -0.003         -0.191          0.024         -0.291          0.100         -0.015          0.028         -0.003         -0.049          0.046         -0.001         -0.009         -0.012         -0.053         -0.055         -0.951         -0.397          2.926         -0.524         -0.033         -0.062         -0.049          0.025          0.001         -0.010          0.008          0.000         -0.013         -0.002         -0.028         -0.031          0.002          0.036         -0.027         -0.022          0.045         -0.072          0.361          0.104         -0.147          0.057         20.148          0.009          0.067          0.021          0.040          0.005          0.026          0.006          0.002         -0.111         -0.013          0.020          0.006          0.005         -0.001          0.039         -0.051          0.011         -0.087         -0.063         -0.009          0.026         -0.037          0.059         -0.103          0.049          0.447         -0.031         -0.005         -0.137          0.017         -0.014         -0.024         -0.003         -0.001          0.011         -0.027          0.033          0.057          0.007          0.015         -0.018          0.075          0.043         -0.001          0.008         -0.010          0.045          0.026         -0.024          0.040         -0.285          0.277          5.679         -2.139          2.549          1.079          4.278          0.010         -0.428          3.588         -0.176         -0.051          0.070          0.029         -0.003         -0.008          0.015          0.014          0.003         -0.014         -0.017         -0.028         -0.038         -0.094          2.780          8.064          0.232          3.052         -0.527         -0.060          0.035          0.203          0.003          0.074          0.208          1.537         -0.048          0.335          0.226          0.031         -0.035         -0.147         34.504
       1000.000         -0.054          0.068          0.163          0.023         -0.085          0.095         -0.693          0.039         -0.288          0.011         -0.018          0.001          0.003          0.004          0.003         -0.016          0.027         -0.225          0.291         -0.270          0.189         -0.030          0.024         -0.005         -0.227          0.146         -0.006         -0.011          0.000         -0.109         -0.009         -1.336         -0.241          5.089         -0.554         -0.072          0.316         -0.061          0.041         -0.007         -0.021          0.018         -0.011         -0.026         -0.003         -0.058         -0.042          0.006          0.049         -0.031         -0.037          0.083         -0.086          0.369         -0.073         -0.172          0.372         25.782         -0.023          0.152          0.004          0.056          0.019          0.043          0.005         -0.019         -0.223         -0.039          0.230         -0.025          0.084         -0.014         -0.069          0.033         -0.011          0.170          0.102         -0.025          0.052         -0.109          0.072         -0.117          0.041          0.611         -0.109         -0.027         -0.326          0.049         -0.060         -0.255         -0.038          0.043         -0.006          0.009         -0.059         -0.031          0.012         -0.006          0.020         -0.016         -0.006         -0.016          0.002         -0.009          0.009         -0.032          0.032         -0.001         -0.084          0.183          2.715          0.368          2.528          0.861          2.263          0.138         -0.181         -0.268         -0.355          0.058          0.052          0.011          0.029          0.259         -0.089         -0.077          0.002         -0.103         -0.062         -0.015         -0.126          0.079          0.531          8.260          4.279          6.621         -0.684          0.066          0.005          0.063          0.061          0.044          1.126          4.261         -0.937         -0.133          0.218          0.050          0.027          0.084         29.095
       2000.000         -0.022          0.013          0.030          0.002         -0.014          0.011         -0.219          0.008         -0.077         -0.006         -0.007          0.000          0.001          0.001         -0.001         -0.003          0.011         -0.037          0.030         -0.027          0.005          0.002          0.001          0.006         -0.035          0.022         -0.000         -0.001         -0.005         -0.005         -0.003         -0.046          0.000          0.148         -0.026         -0.004         -0.008         -0.009          0.005          0.004         -0.003          0.001         -0.000         -0.002         -0.000         -0.008         -0.010          0.002          0.011         -0.007         -0.004          0.009         -0.007          0.068          0.004         -0.001         -0.026          0.379         -0.006          0.009         -0.001          0.008          0.002          0.006          0.001         -0.003         -0.038         -0.007          0.014         -0.003         -0.002         -0.011          0.014         -0.015          0.006         -0.003          0.014         -0.002          0.008         -0.015          0.015         -0.037          0.024          0.271         -0.032         -0.005         -0.138          0.011         -0.015         -0.205         -0.003         -0.002          0.005         -0.005          0.005          0.029         -0.029          0.014         -0.017         -0.012          0.052         -0.023          0.020         -0.037          0.025         -0.044         -0.004          0.069         -0.166          0.150          5.255          0.788          0.835          0.124          0.241         -0.014         -0.090         -0.117         -0.030         -0.030          0.013         -0.001          0.002          0.036         -0.015         -0.007         -0.001         -0.006         -0.007         -0.006         -0.013         -0.006          0.046          0.192         -0.114          0.167         -0.422          0.540          0.486          0.311          0.119          0.680          5.520         10.592         -0.468         -0.025          0.077          0.037         -0.014          0.105         27.457
       3000.000          0.629          0.243          0.021         -0.012          0.178          0.188          0.013         -0.084         -0.384          0.197          0.857          0.002          0.447         -0.016         -0.078         -1.172         -0.526          0.179         -0.516         -0.016         -0.009         -0.002          0.009          0.167          0.091         -0.794         -0.413         -0.302         -0.123         -0.017          0.010         -0.010          0.257          0.008          0.471          0.103         -0.816          0.023          0.094         -0.037          0.024          0.316          0.167         -0.307          0.015         -0.119         -0.784          0.005          4.122         -0.102         -0.256         -0.236          0.326         -0.681         -0.133          0.316          0.424         -0.141         -0.039         -0.007         -0.020          0.188          0.535         -0.116         -0.196         -0.097         -0.361          0.093          0.082         -0.237         -3.661         -0.126         -0.617         -0.379          0.112          2.807         -0.194         -0.045          0.875          0.036         -0.034          0.006          0.053         -0.710          0.364         -0.336         -0.284         -0.730         -0.295         -0.248         -0.075          0.043          0.443          0.077          0.397         -0.149         -0.163          0.356          0.074         -0.166          0.105         -0.102         -0.404          0.048         -0.170          0.093          0.292         -0.160         -0.169         -0.890         -0.802          1.261          0.045          0.113          0.100         -0.129          0.165         -0.414          0.028          0.005          0.012          0.020          0.094          0.266         -1.321         -0.391         -0.099          0.725          0.034         -0.249          0.006          0.120         -0.018         -0.186          0.400         -0.638          0.554          1.703         -0.582         -0.105         -0.665          2.031         -0.146          6.917         -0.263          0.097          0.074         -0.017         -0.192         -0.603          8.640
       4000.000          0.429         -0.096         -0.457         -0.067         -0.133          0.126         -1.759         -0.003          0.085          0.159          0.321          0.107          0.202          0.051          0.127          0.143          0.310         -0.097         -0.301         -0.087          0.030         -0.007          0.018          0.877         -0.355         -0.800         -0.117          0.042          0.025         -0.001          0.004         -0.085         -0.931         -0.272         -0.270         -0.152         -3.334         -0.126         -0.148          0.095         -0.043         -0.642         -0.073          1.360          0.246          1.066         -0.481         -0.080         -0.763         -0.111         -0.075         -0.047         -0.042          1.059         -0.354          0.387          0.097          1.931          0.016          0.042         -0.028         -0.032         -0.070          0.157          0.140          0.482          0.220          0.314         -0.029         -0.519          0.136         -0.002         -0.614          2.058          0.179         -1.227          1.627          0.055          0.939          0.099         -0.056         -0.003          0.004          0.122         -0.059         -0.638          1.192         -0.373         -0.256          0.938         -0.359         -0.379         -0.364          0.658         -0.949         -0.063          0.005         -0.260          0.035         -0.172          0.334          0.012          0.110         -0.114         -0.830         -0.010          0.078         -0.053         -0.023         -0.156          0.332         -0.558         -0.056          0.022          0.005          0.041         -0.044         -0.154         -0.024         -0.050         -0.020         -0.006         -0.242          0.595          1.629         -1.659         -0.034          0.592         -0.058         -0.338         -0.098          0.054          0.433         -0.287         -0.881          6.876          1.653          0.722          0.262         -3.216          0.246         -0.948          0.341          8.332          0.476         -0.204          0.089          0.019          0.197          0.050          9.430
       5000.000         -0.009          0.009          0.007          0.002         -0.013          0.012         -0.143          0.011         -0.055          0.002         -0.006         -0.000          0.000          0.001          0.001         -0.002         -0.007         -0.030          0.094         -0.059          0.031          0.009          0.004         -0.000         -0.018          0.012         -0.001          0.001         -0.003         -0.003         -0.015         -0.077          0.007          1.043         -0.070         -0.012          0.164         -0.005          0.005          0.000         -0.002          0.002         -0.007         -0.017         -0.001         -0.003         -0.004          0.000          0.004         -0.001         -0.001          0.004         -0.004          0.018          0.031          0.020         -0.078         -0.444         -0.010          0.010         -0.005          0.005          0.002          0.003          0.003         -0.004         -0.014         -0.005          0.014          0.002          0.016          0.004         -0.019          0.043         -0.004          0.029          0.022          0.002         -0.002         -0.002          0.008         -0.003          0.016          0.089         -0.028         -0.003         -0.047          0.010         -0.008         -0.039         -0.001          0.001         -0.002          0.004         -0.016         -0.014          0.005         -0.006         -0.000         -0.013         -0.023          0.000          0.014          0.009         -0.014         -0.003          0.022          0.010         -0.068         -0.032          0.362          0.130         -0.099         -0.030          1.653          0.004          0.013          3.465         -0.015         -0.024          0.000          0.001          0.002          0.042         -0.029         -0.006          0.000         -0.012         -0.004          0.004         -0.006         -0.014          0.411          1.746          0.240          7.354          3.465          1.596          0.043         -0.119         -0.023          0.080         -0.001          2.764          0.080         -0.029         -0.065         -0.011          0.025          0.114         10.493
       6000.000          0.007         -0.003         -0.010         -0.001          0.003         -0.003          0.036          0.002          0.018          0.004          0.003          0.000          0.000         -0.001         -0.000          0.001         -0.000          0.007          0.001          0.006         -0.008          0.002         -0.003          0.002          0.011         -0.010         -0.001          0.003         -0.000          0.008         -0.011         -0.012          0.005          0.077         -0.069         -0.005          5.849          0.010         -0.001         -0.002          0.005         -0.004         -0.001          0.005          0.001          0.001          0.014         -0.004         -0.013          0.012          0.004         -0.012          0.011         -0.050          0.018          0.027          0.010         -0.334         -0.002          0.002         -0.004         -0.009          0.000         -0.005          0.000         -0.001          0.023          0.001         -0.005          0.001          0.007          0.005         -0.004          0.027         -0.003          0.012          0.005         -0.001          0.001          0.001         -0.002          0.004         -0.002         -0.044          0.003          0.001          0.024         -0.003          0.002          0.028          0.000          0.002         -0.004          0.004         -0.013         -0.016          0.006         -0.002         -0.002         -0.011         -0.037          0.004         -0.005          0.008         -0.014          0.004          0.015         -0.021          0.042          0.028          0.011         -0.215         -0.094         -0.010         -0.072          0.005         -0.003         -0.001         -0.001          0.003         -0.001         -0.003          0.001          0.003         -0.006         -0.000         -0.001          0.003          0.001          0.004         -0.005          0.019         -0.067         -0.011          0.029         -0.198          0.070         -0.229          0.114         -0.143         -0.046         -0.044          0.102          1.767          0.185          0.008         -0.034         -0.008          0.019          0.038          9.814
       7000.000          0.006         -0.004         -0.006         -0.005         -0.017          0.020         -0.257          0.027         -0.053          0.012         -0.000          0.006          0.005         -0.003         -0.003          0.010         -0.022         -0.056          0.033         -0.016         -0.030          0.013         -0.012          0.005          0.006         -0.013         -0.003          0.012         -0.016          0.030         -0.068         -0.021          0.361          1.054         -0.074          0.005         14.424          0.033         -0.011         -0.013          0.004         -0.005         -0.002          0.005          0.002          0.002          0.038         -0.008         -0.040          0.009          0.002         -0.033          0.071         -0.491         -0.079          0.232          0.114         -3.570         -0.102          0.008         -0.030         -0.030          0.003         -0.013          0.004         -0.005          0.058         -0.003         -0.003          0.002          0.052         -0.009         -0.038          0.064         -0.004          0.084          0.112         -0.011          0.004         -0.062          0.071         -0.085          0.056          0.655         -0.037         -0.005         -0.231          0.049         -0.035         -0.325         -0.027          0.024          0.015         -0.056         -0.067         -0.049          0.040         -0.005         -0.003         -0.048         -0.039         -0.000         -0.006          0.002         -0.013         -0.006          0.031         -0.092          0.103         -0.095          1.513          1.488          1.622          1.074          0.649         -0.091         -0.124         -0.065         -0.071         -0.042          0.083         -0.021          0.023          0.114         -0.082         -0.017         -0.003         -0.011         -0.021         -0.001         -0.015          0.032         -0.351         -0.246         -0.044          2.738          0.310         -0.046          0.016         -0.126         -0.038         -0.054         -0.124          3.358         -0.197         -0.003          0.042         -0.001          0.072          0.043         18.264
       8000.000          1.339          2.884          0.738          0.058         -0.311          0.457         -0.176          0.063         -1.435         -0.701         -0.466         -0.013         -0.092         -0.140          0.063         -0.020         -0.587         -0.026         -0.739          0.039         -0.043          0.040         -0.018         -0.172          0.283         -0.923          0.043         -0.022         -0.044          0.025          0.035          0.036          0.101          0.445          0.350          0.048         -2.655          0.129          0.141         -0.045          0.141          0.242         -0.073         -0.874          0.135          0.180         -0.156         -0.071          0.499          0.068         -1.111         -0.039         -0.332         -0.127          0.131         -0.740          0.450         -2.974          0.010          0.000         -0.038         -0.163          0.602          0.071          0.215          0.315          0.298          0.178         -1.462         -0.286         -4.909         -0.384         -1.459          0.562         -0.048         -0.450          1.135          0.037          0.126          0.058         -0.011          0.101         -0.065         -3.881         -0.146          0.037          0.719          0.323          0.053          0.337          0.267         -0.044         -0.331          0.068          0.748          0.083          0.047         -0.393          0.169          1.826          0.618         -0.700         -0.279          0.075          0.132         -0.037         -0.239          0.106         -0.161         -0.293          0.210         -2.397         -1.357          0.356          1.206         -0.250          0.234         -0.295         -0.200          0.002          0.019          0.013         -0.008         -0.882         -1.412          0.987         -0.076          1.169          0.028          0.396          0.019          0.113          0.525          0.021         -0.337         -0.659         -0.008         -0.167          0.211          0.867         -0.590          0.034         -0.085          4.616          0.233          0.052         -0.117          0.090         -0.567         -0.799          6.197
       9000.000          0.007         -0.011         -0.035          0.001         -0.026         -0.003          0.739         -0.057          0.179         -0.039          0.006          0.004          0.004         -0.007         -0.004         -0.002          0.006          0.086         -0.034         -0.066          0.049         -0.025          0.014         -0.002          0.030         -0.009          0.002         -0.008          0.016         -0.026          0.049         -0.286         -0.078          7.287         -0.081         -0.061         -0.449         -0.017          0.006          0.001          0.002          0.001          0.001          0.001         -0.000         -0.000         -0.005          0.002          0.006         -0.010         -0.008          0.018         -0.026          0.159          0.049         -0.035         -0.061          1.681          0.008          0.016          0.010          0.013         -0.000          0.005         -0.001          0.002         -0.010          0.005          0.002          0.003         -0.013          0.011          0.008         -0.011          0.007         -0.092         -0.080          0.013          0.039          0.015          0.003          0.116         -0.052         -2.454          0.110          0.016          0.655         -0.102          0.078          1.110          0.021          0.004          0.010          0.070          0.070          0.056          0.007         -0.013          0.018         -0.065         -0.056         -0.007         -0.062          0.026         -0.002         -0.035          0.028          0.063         -0.208         -0.285          0.385         -3.974          1.567          0.661          2.376          0.992          0.500          0.606         -0.033          0.067         -0.109          0.027         -0.011         -0.144          0.096          0.019          0.014          0.026          0.017          0.030         -0.043          0.063          3.583          4.086          0.430         10.445          0.133         -0.007          0.169         -0.173         -0.018         -0.058          0.319          4.041          0.330          0.036         -0.090          0.036          0.035          0.167         20.516
      10000.000         -0.033          0.031          0.056          0.013         -0.013          0.010          0.068         -0.028         -0.012          0.014         -0.000          0.006          0.002         -0.000         -0.005          0.000         -0.002          0.032          0.037         -0.092          0.066         -0.043          0.009         -0.002         -0.095          0.064         -0.004         -0.008         -0.000         -0.057          0.094         -0.841         -0.169          7.044         -0.345         -0.036          7.569         -0.030          0.029         -0.003         -0.015          0.007          0.011         -0.038         -0.001         -0.025         -0.022          0.005          0.030         -0.021         -0.012          0.042         -0.054          0.360          0.116         -0.094         -0.249         11.371          0.022          0.045          0.004          0.037          0.005          0.023          0.004         -0.021         -0.127         -0.019          0.039          0.019          0.040         -0.012         -0.031          0.039          0.001          0.014          0.021         -0.001         -0.001          0.025         -0.013          0.018         -0.051         -0.146          0.057         -0.003          0.040         -0.017          0.005          0.040          0.004         -0.006         -0.003         -0.009         -0.005          0.038         -0.035          0.009          0.009         -0.040          0.006          0.013         -0.040          0.008          0.007         -0.056          0.028          0.171         -0.334          0.222          1.944         -1.651          4.132          1.712          3.750          0.771          2.301          1.502          0.001          0.003         -0.041          0.034         -0.007          0.044         -0.033         -0.007         -0.000         -0.027         -0.008          0.015         -0.032         -0.062          3.795          4.849          1.036          8.126         -0.469         -0.093          0.082         -0.068          0.002          0.034          0.113          1.529         -0.071         -0.095         -0.146          0.044          0.066          0.401         16.668
      11000.000         -0.027          0.090          0.081          0.008         -0.032          0.035         -0.498         -0.006         -0.088          0.031         -0.014          0.017          0.012          0.005         -0.010         -0.017         -0.005         -0.049          0.145         -0.158          0.075         -0.017          0.007         -0.001         -0.149          0.096         -0.003         -0.004         -0.009         -0.052          0.052         -0.025         -0.076          6.777         -0.399         -0.056          2.840         -0.032          0.029         -0.002         -0.017          0.005          0.009         -0.077         -0.004         -0.015         -0.031          0.001          0.036         -0.017         -0.017          0.051         -0.047          0.299          0.069         -0.062         -0.126          7.651         -0.033          0.061         -0.022          0.033          0.012          0.027          0.013         -0.009         -0.150         -0.029          0.050          0.009          0.052         -0.010         -0.047          0.024         -0.002          0.075          0.056         -0.015         -0.021         -0.007          0.008         -0.023          0.010          0.866         -0.037         -0.019         -0.310          0.047         -0.032         -0.542         -0.002          0.017          0.019         -0.006         -0.044          0.001          0.007         -0.006         -0.006         -0.030          0.030         -0.020          0.001         -0.002          0.009         -0.040          0.052          0.079         -0.277          0.398          2.646         -0.586          3.667          0.678          2.149          0.797          0.116          1.752         -0.053          0.033         -0.012          0.013          0.006          0.137         -0.084         -0.022         -0.009         -0.043         -0.024          0.003         -0.091          0.129          1.818          6.029          0.184          5.386         -0.235         -0.034          0.143         -0.004         -0.013          0.044          0.367          3.707         -0.305         -0.150          0.056          0.089          0.063          0.469         22.764