# Time	LEU-18	GLU-19	ASP-20	GLY-21	ALA-22	TYR-23	ARG-24	ILE-25	LYS-26	GLN-27	LYS-28	GLY-29	ILE-30	LEU-31	GLY-32	TYR-33	SER-34	GLN-35	ILE-36	GLY-37	ALA-38	GLY-39	VAL-40	TYR-41	LYS-42	GLU-43	GLY-44	THR-45	PHE-46	HIS-47	THR-48	MET-49	TRP-50	HIS-51	VAL-52	THR-53	ARG-54	GLY-55	ALA-56	VAL-57	LEU-58	MET-59	HIS-60	LYS-61	GLY-62	LYS-63	ARG-64	ILE-65	GLU-66	PRO-67	SER-68	TRP-69	ALA-70	ASP-71	VAL-72	LYS-73	LYS-74	ASP-75	LEU-76	ILE-77	SER-78	TYR-79	GLY-80	GLY-81	GLY-82	TRP-83	LYS-84	LEU-85	GLU-86	GLY-87	GLU-88	TRP-89	LYS-90	GLU-91	GLY-92	GLU-93	GLU-94	VAL-95	GLN-96	VAL-97	LEU-98	ALA-99	LEU-100	GLU-101	PRO-102	GLY-103	LYS-104	ASN-105	PRO-106	ARG-107	ALA-108	VAL-109	GLN-110	THR-111	LYS-112	PRO-113	GLY-114	LEU-115	PHE-116	LYS-117	THR-118	ASN-119	THR-120	GLY-121	THR-122	ILE-123	GLY-124	ALA-125	VAL-126	SER-127	LEU-128	ASP-129	PHE-130	SER-131	PRO-132	GLY-133	THR-134	SER-135	GLY-136	SER-137	PRO-138	ILE-139	VAL-140	ASP-141	LYS-142	LYS-143	GLY-144	LYS-145	VAL-146	VAL-147	GLY-148	LEU-149	TYR-150	GLY-151	ASN-152	GLY-153	VAL-154	VAL-155	THR-156	ARG-157	SER-158	GLY-159	ALA-160	TYR-161	VAL-162	SER-163	ALA-164	ILE-165	ALA-166	ASN-167	UNK1-168	
          0.000          0.000          0.000          0.000          0.000          0.000          0.000          0.000          0.000          0.000          0.000          0.000          0.000          0.000          0.000          0.000          0.000          0.000          0.000          0.000          0.000          0.000          0.000          0.000          0.000          0.000          0.000          0.000          0.000          0.000          0.000          0.000          0.000          0.000         -0.420          0.000          0.000          0.000          0.000          0.000          0.000          0.000          0.000          0.000          0.000          0.000          0.000          0.000          0.000          0.000          0.000          0.000          0.000          0.000          0.000          0.000          0.000          0.000         -0.228          0.000          0.000          0.000          0.000          0.000          0.000          0.000          0.000          0.000          0.000          0.000          0.000          0.000          0.000          0.000          0.000          0.000          0.000          0.000          0.000          0.000          0.000          0.000          0.000          0.000          0.000          0.000          0.000          0.000          0.000          0.000          0.000          0.000          0.000          0.000          0.000          0.000          0.000          0.000          0.000          0.000          0.000          0.000          0.000          0.000          0.000          0.000          0.000          0.000          0.000          0.000          0.000         -1.286          0.000         -0.152          0.000         -1.137          0.000          0.000         -0.196          0.000          0.000          0.000          0.000          0.000          0.000          0.000          0.000          0.000          0.000          0.000          0.000          0.000          0.000          0.000         -0.228          0.000         -0.558          0.000          0.000          0.000          0.000          0.000          0.000          0.000         -0.851          0.000          0.000          0.000          0.000          0.000          0.000         -7.590
       1000.000          0.000          0.000          0.000          0.000          0.000          0.000          0.000          0.000          0.000          0.000          0.000          0.000          0.000          0.000          0.000          0.000          0.000          0.000          0.000          0.000          0.000          0.000          0.000          0.000          0.000          0.000          0.000          0.000          0.000          0.000          0.000          0.000          0.000         -0.686          0.000          0.000          0.000          0.000          0.000          0.000          0.000          0.000          0.000          0.000          0.000          0.000          0.000          0.000          0.000          0.000          0.000          0.000          0.000          0.000          0.000          0.000          0.000         -0.152          0.000          0.000          0.000          0.000          0.000          0.000          0.000          0.000          0.000          0.000          0.000          0.000          0.000          0.000          0.000          0.000          0.000          0.000          0.000          0.000          0.000          0.000          0.000          0.000          0.000          0.000          0.000          0.000          0.000          0.000          0.000          0.000          0.000          0.000          0.000          0.000          0.000          0.000          0.000          0.000          0.000          0.000          0.000          0.000          0.000          0.000          0.000          0.000          0.000          0.000          0.000          0.000         -1.168          0.000         -0.152          0.000         -1.386          0.000          0.000         -0.051          0.000          0.000          0.000          0.000          0.000          0.000          0.000          0.000          0.000          0.000          0.000          0.000          0.000          0.000          0.000         -0.228         -0.136         -0.633          0.000          0.000          0.000          0.000          0.000          0.000          0.000         -1.299          0.000          0.000          0.000          0.000          0.000          0.000         -6.820
       2000.000          0.000          0.000          0.000          0.000          0.000          0.000          0.000          0.000          0.000          0.000          0.000          0.000          0.000          0.000          0.000          0.000          0.000          0.000          0.000          0.000          0.000          0.000          0.000          0.000          0.000          0.000          0.000          0.000          0.000          0.000          0.000          0.000          0.000          0.000          0.000          0.000          0.000          0.000          0.000          0.000          0.000          0.000          0.000          0.000          0.000          0.000          0.000          0.000          0.000          0.000          0.000          0.000          0.000          0.000          0.000          0.000          0.000          0.000          0.000          0.000          0.000          0.000          0.000          0.000          0.000          0.000          0.000          0.000          0.000          0.000          0.000          0.000          0.000          0.000          0.000          0.000          0.000          0.000          0.000          0.000          0.000          0.000          0.000          0.000          0.000          0.000          0.000          0.000          0.000          0.000          0.000          0.000          0.000          0.000          0.000          0.000          0.000          0.000          0.000          0.000          0.000          0.000          0.000          0.000          0.000          0.000          0.000          0.000          0.000          0.000         -1.252          0.000         -0.076          0.000         -0.821          0.000          0.000          0.000          0.000          0.000          0.000          0.000          0.000          0.000          0.000          0.000          0.000          0.000          0.000          0.000          0.000          0.000          0.000          0.000          0.000         -0.120          0.000          0.000          0.000          0.000          0.000          0.000         -0.317         -2.355          0.000          0.000          0.000          0.000          0.000          0.000         -4.716
       3000.000          0.000          0.000          0.000          0.000          0.000          0.000          0.000          0.051          0.000          0.000          0.000          0.000          0.000          0.000          0.000          0.060          0.000          0.000          0.000          0.000          0.000          0.000          0.000          0.000          0.000          0.000          0.000          0.000          0.000          0.000          0.000          0.000         -0.060          0.000          0.000          0.000          0.000          0.000          0.086          0.000          0.000          0.000          0.000          0.000          0.000          0.000          0.000          0.000          0.000          0.000         -0.060          0.000         -0.222          0.000          0.000          0.000          0.000          0.000         -0.086          0.000          0.000          0.000          0.000          0.000          0.000         -0.060          0.000          0.000          0.000          0.000          0.000          0.076          0.000          0.000          0.000          0.000          0.051          0.000          0.000         -0.086          0.000          0.000          0.000          0.000          0.000          0.000          0.000          0.000          0.000          0.000          0.000          0.000          0.000          0.120          0.000          0.000          0.000          0.222         -0.089         -0.127          0.076          0.000          0.000          0.000          0.000          0.000          0.000          0.000          0.086          0.127          0.000          0.000          0.000          0.000          0.000          0.000          0.000          0.000          0.000          0.000         -0.086          0.000         -0.222          0.000          0.060          0.000         -0.060         -0.154          0.025          0.000          0.000          0.051          0.000          0.000          0.000          0.162          0.086         -0.505         -0.060         -0.309          0.000          0.000          0.000         -1.163          0.000          0.000          0.000          0.000          0.000          0.000         -1.847
       4000.000          0.000          0.000          0.000          0.000          0.000          0.000          0.000          0.000          0.000          0.000          0.000          0.000          0.000          0.000          0.000          0.000          0.000          0.000          0.000          0.000          0.000          0.000         -0.051          0.000          0.000          0.000          0.000          0.000          0.000          0.000          0.000          0.000          0.000          0.000          0.000          0.000          0.000          0.000          0.000          0.000          0.000          0.000          0.000          0.000          0.000          0.000          0.000          0.000          0.000          0.000          0.000         -0.051          0.000          0.000          0.000          0.000          0.000          0.000          0.000          0.000          0.000          0.000          0.000          0.000         -0.120         -0.009          0.000          0.000          0.000          0.000          0.000          0.000          0.000          0.000          0.000          0.000          0.000          0.000          0.000          0.000          0.000          0.000          0.000          0.000          0.000          0.000          0.000          0.000          0.000          0.000          0.000          0.000          0.000          0.000          0.000          0.000          0.000          0.000          0.000          0.000          0.000          0.000          0.000          0.000          0.000         -0.051          0.000          0.000          0.000          0.000          0.000          0.000          0.000          0.000          0.000          0.000          0.000          0.000          0.000          0.000          0.000          0.000          0.000          0.000          0.000          0.000          0.000          0.000          0.000          0.000          0.000          0.000          0.000          0.000          0.000         -0.586         -0.181         -0.770          0.000          0.000          0.000          0.000          0.000         -1.137          0.000          0.000          0.000          0.000         -0.051          0.000         -2.921
       5000.000          0.000          0.000          0.000          0.000          0.000          0.000          0.000          0.000          0.000          0.000          0.000          0.000          0.000          0.000          0.000          0.000          0.000          0.000          0.000          0.000          0.000          0.000          0.000          0.000          0.000          0.000          0.000          0.000          0.000          0.000          0.000          0.000          0.000         -0.078          0.000          0.000          0.000          0.000          0.000          0.000          0.000          0.000          0.000          0.000          0.000          0.000          0.000          0.000          0.000          0.000          0.000          0.000          0.000          0.000          0.000          0.000          0.000          0.000          0.000          0.000          0.000          0.000          0.000          0.000          0.000          0.000          0.000          0.000          0.000          0.000          0.000          0.000          0.000          0.000          0.000          0.000          0.000          0.000          0.000          0.000          0.000          0.000          0.000          0.000          0.000          0.000          0.000          0.000          0.000          0.000          0.000          0.000          0.000          0.000          0.000          0.000          0.000          0.000          0.000          0.000          0.000          0.000          0.000          0.000          0.000          0.000          0.000          0.000          0.000          0.000         -0.154          0.000          0.000          0.000         -0.702          0.000          0.000          0.000          0.000          0.000          0.000          0.000          0.000          0.000          0.000          0.000          0.000          0.000          0.000          0.000          0.000          0.000          0.000         -0.228          0.000         -1.143         -0.060         -0.256          0.000          0.000          0.000          0.000          0.000         -0.635          0.000          0.000          0.000          0.000          0.000          0.000         -4.838
       6000.000          0.000          0.000          0.000          0.000          0.000          0.000          0.000          0.000          0.000          0.000          0.000          0.000          0.000          0.000          0.000          0.000          0.000          0.000          0.000          0.000          0.000          0.000          0.000          0.000          0.000          0.000          0.000          0.000          0.000          0.000          0.000          0.000          0.000          0.000          0.000          0.000         -0.258          0.000          0.000          0.000          0.000          0.000          0.000          0.000          0.000          0.000          0.000          0.000          0.000          0.000          0.000          0.000          0.000          0.000          0.000          0.000          0.000          0.000          0.000          0.000          0.000          0.000          0.000          0.000          0.000          0.000          0.000          0.000          0.000          0.000          0.000          0.000          0.000          0.000          0.000          0.000          0.000          0.000          0.000          0.000          0.000          0.000          0.000          0.000          0.000          0.000          0.000          0.000          0.000          0.000          0.000          0.000          0.000          0.000          0.000          0.000          0.000          0.000          0.000          0.000          0.000          0.000          0.000          0.000          0.000          0.000          0.000          0.000          0.000          0.000         -0.479          0.000          0.000          0.000          0.000          0.000          0.000          0.000          0.000          0.000          0.000          0.000          0.000          0.000          0.000          0.000          0.000          0.000          0.000          0.000          0.000          0.000          0.000          0.000          0.000          0.000          0.000          0.000          0.000          0.000          0.000          0.000          0.000         -0.588          0.000          0.000          0.000          0.000          0.000          0.000         -1.847
       7000.000          0.000          0.000          0.000          0.000          0.000          0.000          0.000          0.000          0.000          0.000          0.000          0.000          0.000          0.000          0.000          0.000          0.000          0.000          0.000          0.000          0.000          0.000          0.000          0.000          0.000          0.000          0.000          0.000          0.000          0.000          0.000          0.000          0.000          0.000          0.000          0.000         -0.559          0.000          0.000          0.000          0.000          0.000          0.000          0.000          0.000          0.000          0.000          0.000          0.000          0.000          0.000          0.000          0.000          0.000          0.000          0.000          0.000         -0.076          0.000          0.000          0.000          0.000          0.000          0.000          0.000          0.000          0.000          0.000          0.000          0.000          0.000          0.000          0.000          0.000          0.000          0.000          0.000          0.000          0.000          0.000          0.000          0.000          0.000          0.000          0.000          0.000          0.000          0.000          0.000          0.000          0.000          0.000          0.000          0.000          0.000          0.000          0.000          0.000          0.000          0.000          0.000          0.000          0.000          0.000          0.000          0.000          0.000          0.000          0.000          0.000         -0.726          0.000         -0.152         -0.060         -1.026          0.000          0.000          0.000          0.000          0.000          0.000          0.000          0.000          0.000          0.000          0.000          0.000          0.000          0.000          0.000          0.000          0.000          0.000          0.000          0.000         -0.614          0.000          0.000          0.000          0.000          0.000          0.000          0.000         -1.237          0.000          0.000          0.000          0.000          0.000          0.000         -4.983
       8000.000          0.000          0.051          0.000          0.000          0.000          0.136          0.000          0.000          0.000          0.000          0.000          0.000          0.000          0.000         -0.060         -0.076          0.000          0.000          0.000          0.000          0.000          0.000          0.000         -0.089          0.000          0.000          0.000          0.000          0.000          0.000          0.000          0.000          0.000          0.000          0.000          0.000         -0.155          0.000          0.000          0.000          0.000         -0.034         -0.060          0.000          0.000         -0.051         -0.051          0.000          0.000          0.000          0.000          0.000          0.000          0.000          0.000          0.000          0.000          0.000          0.000          0.000          0.000          0.000          0.000          0.000         -0.086          0.089          0.060          0.000          0.000          0.000          0.000          0.069          0.000          0.076          0.000          0.000          0.076         -0.086          0.000         -0.076          0.000          0.000          0.000         -0.076          0.000          0.000          0.000          0.000          0.000          0.000          0.000          0.000          0.000          0.000          0.000          0.000          0.000          0.000          0.000         -0.076          0.000          0.000          0.000          0.000          0.152          0.000          0.000          0.000          0.000          0.000         -0.530          0.000         -0.076         -0.060         -0.727          0.000          0.000          0.000          0.000          0.000          0.000          0.000          0.000          0.000          0.103          0.000          0.000          0.188          0.000          0.010          0.000          0.000          0.089          0.000          0.060         -0.206          0.051          0.000          0.000         -0.103          0.000          0.000          0.000         -1.093          0.000          0.000          0.000          0.000          0.000          0.000         -3.117
       9000.000          0.000          0.000          0.000          0.000          0.000          0.000          0.000          0.000          0.000          0.000          0.000          0.000          0.000          0.000          0.000          0.000          0.000          0.000          0.000          0.000          0.000          0.000          0.000          0.000          0.000          0.000          0.000          0.000          0.000          0.000          0.000          0.000          0.000         -0.386          0.000          0.000          0.000          0.000          0.000          0.000          0.000          0.000          0.000          0.000          0.000          0.000          0.000          0.000          0.000          0.000          0.000          0.000          0.000          0.000          0.000          0.000          0.000          0.000          0.000          0.000          0.000          0.000          0.000          0.000          0.000          0.000          0.000          0.000          0.000          0.000          0.000          0.000          0.000          0.000          0.000          0.000          0.000          0.000          0.000          0.000          0.000          0.000          0.000          0.000          0.000          0.000          0.000          0.000          0.000          0.000          0.000          0.000          0.000          0.000          0.000          0.000          0.000          0.000          0.000          0.000          0.000          0.000          0.000          0.000          0.000          0.000          0.000          0.000          0.000          0.000         -1.151          0.000         -0.304          0.000         -0.865         -0.060          0.000         -0.136          0.000          0.000          0.000          0.000          0.000          0.000          0.000          0.000          0.000          0.000          0.000          0.000          0.000          0.000          0.000         -0.076          0.000         -0.848          0.000          0.000          0.000          0.000          0.000          0.000          0.000         -1.083          0.000          0.000          0.000          0.000          0.000          0.000         -4.979
      10000.000          0.000          0.000          0.000          0.000          0.000          0.000          0.000          0.000          0.000          0.000          0.000          0.000          0.000          0.000          0.000          0.000          0.000          0.000          0.000          0.000          0.000          0.000          0.000          0.000          0.000          0.000          0.000          0.000          0.000          0.000          0.000          0.000          0.000         -0.926          0.000          0.000         -0.482          0.000          0.000          0.000          0.000          0.000          0.000          0.000          0.000          0.000          0.000          0.000          0.000          0.000          0.000          0.000          0.000          0.000          0.000          0.000          0.000         -0.152          0.000          0.000          0.000          0.000          0.000          0.000          0.000          0.000          0.000          0.000          0.000          0.000          0.000          0.000          0.000          0.000          0.000          0.000          0.000          0.000          0.000          0.000          0.000          0.000          0.000          0.000          0.000          0.000          0.000          0.000          0.000          0.000          0.000          0.000          0.000          0.000          0.000          0.000          0.000          0.000          0.000          0.000          0.000          0.000          0.000          0.000          0.000          0.000          0.000          0.000          0.000          0.000         -1.330          0.000         -0.076          0.000         -0.865         -0.120         -0.136         -0.393          0.000          0.000          0.000          0.000          0.000          0.000          0.000          0.000          0.000          0.000          0.000          0.000          0.000          0.000         -0.060         -0.120          0.000         -0.633          0.000          0.000          0.000          0.000          0.000          0.000          0.000         -0.796          0.000          0.000          0.000          0.000          0.000          0.000         -7.219
      11000.000          0.000          0.000          0.000          0.000          0.000          0.000          0.000          0.000          0.000          0.000          0.000          0.000          0.000          0.000          0.000          0.000          0.000          0.000          0.000          0.000          0.000          0.000          0.000          0.000          0.000          0.000          0.000          0.000          0.000          0.000          0.000          0.000          0.000         -0.566          0.000          0.000          0.000          0.000          0.000          0.000          0.000          0.000          0.000          0.000          0.000          0.000          0.000          0.000          0.000          0.000          0.000          0.000          0.000          0.000          0.000          0.000          0.000         -0.152          0.000          0.000          0.000          0.000          0.000          0.000          0.000          0.000          0.000          0.000          0.000          0.000          0.000          0.000          0.000          0.000          0.000          0.000          0.000          0.000          0.000          0.000          0.000          0.000          0.000          0.000          0.000          0.000          0.000          0.000          0.000          0.000          0.000          0.000          0.000          0.000          0.000          0.000          0.000          0.000          0.000          0.000          0.000          0.000          0.000          0.000          0.000          0.000          0.000          0.000          0.000          0.000         -1.017          0.000         -0.076          0.000         -1.164         -0.060          0.000         -0.408          0.000          0.000          0.000          0.000          0.000          0.000          0.000          0.000          0.000          0.000          0.000          0.000          0.000          0.000         -0.060         -0.272          0.000         -0.633          0.000          0.000          0.000          0.000          0.000          0.000          0.000         -1.226          0.000          0.000          0.000          0.000          0.000          0.000         -6.972