# Time	LEU-18	GLU-19	ASP-20	GLY-21	ALA-22	TYR-23	ARG-24	ILE-25	LYS-26	GLN-27	LYS-28	GLY-29	ILE-30	LEU-31	GLY-32	TYR-33	SER-34	GLN-35	ILE-36	GLY-37	ALA-38	GLY-39	VAL-40	TYR-41	LYS-42	GLU-43	GLY-44	THR-45	PHE-46	HIS-47	THR-48	MET-49	TRP-50	HIS-51	VAL-52	THR-53	ARG-54	GLY-55	ALA-56	VAL-57	LEU-58	MET-59	HIS-60	LYS-61	GLY-62	LYS-63	ARG-64	ILE-65	GLU-66	PRO-67	SER-68	TRP-69	ALA-70	ASP-71	VAL-72	LYS-73	LYS-74	ASP-75	LEU-76	ILE-77	SER-78	TYR-79	GLY-80	GLY-81	GLY-82	TRP-83	LYS-84	LEU-85	GLU-86	GLY-87	GLU-88	TRP-89	LYS-90	GLU-91	GLY-92	GLU-93	GLU-94	VAL-95	GLN-96	VAL-97	LEU-98	ALA-99	LEU-100	GLU-101	PRO-102	GLY-103	LYS-104	ASN-105	PRO-106	ARG-107	ALA-108	VAL-109	GLN-110	THR-111	LYS-112	PRO-113	GLY-114	LEU-115	PHE-116	LYS-117	THR-118	ASN-119	THR-120	GLY-121	THR-122	ILE-123	GLY-124	ALA-125	VAL-126	SER-127	LEU-128	ASP-129	PHE-130	SER-131	PRO-132	GLY-133	THR-134	SER-135	GLY-136	SER-137	PRO-138	ILE-139	VAL-140	ASP-141	LYS-142	LYS-143	GLY-144	LYS-145	VAL-146	VAL-147	GLY-148	LEU-149	TYR-150	GLY-151	ASN-152	GLY-153	VAL-154	VAL-155	THR-156	ARG-157	SER-158	GLY-159	ALA-160	TYR-161	VAL-162	SER-163	ALA-164	ILE-165	ALA-166	ASN-167	UNK1-168	
          0.000          0.040          0.038          0.007         -0.018         -0.020          0.006         -0.212          0.012         -0.109          0.024         -0.018         -0.002         -0.001          0.001         -0.001          0.003         -0.016         -0.004         -0.001         -0.000         -0.051         -0.010         -0.069          0.013         -0.042         -0.173         -0.016          0.009         -0.055         -0.076         -0.168         -0.248          0.084          0.118          0.020         -0.004          0.318          0.019         -0.017          0.008         -0.012         -0.002         -0.017         -0.022         -0.003          0.142          0.208          0.001         -0.303          0.010         -0.005         -0.135          0.012         -6.686         -0.215          4.146         -0.073         -1.810         -3.466         -0.071         -0.148         -0.024          0.019          0.010          0.091         -3.470          0.272         -0.482         -0.177         -0.121         -1.599         -0.337          0.258          0.128         -0.024          0.133          0.368         -0.052          0.016         -0.063         -0.014         -0.022         -0.003          0.406          0.005          0.004         -0.344          0.012         -0.010         -0.303         -0.018          0.023         -0.012         -0.054         -0.526         -0.145          0.067         -0.078         -0.094         -0.766         -2.695         -0.655         -0.063          0.172         -0.440         -2.169          0.300         -0.450          0.053          0.001         -0.078          0.800          0.011          0.013         -0.024         -0.016         -0.025          0.014         -0.031          0.036         -0.103         -0.137          0.023          0.307         -0.201          0.024         -0.020         -0.037         -0.160         -0.523         -2.638         -1.643         -0.205         -0.160         -3.339         -0.278         -3.820          0.617         -0.060         -1.724          0.008         -0.127          0.162         -0.258         -0.220         -0.430         -3.423         -5.890         -3.567        -19.724        -68.780
       1000.000          0.320         -0.263         -0.215         -0.009          0.027         -0.025          0.473         -0.008          0.410          0.069          0.340          0.006          0.010          0.005         -0.015          0.026         -0.006          0.054         -0.067          0.054         -0.077          0.020         -0.028          0.022          0.068         -0.132         -0.006          0.018         -0.010          0.060          0.040          0.224          0.379          0.664          0.076         -0.023          1.226          0.073         -0.037         -0.034          0.022         -0.007         -0.017          0.366          0.010          0.274          0.458         -0.028         -0.458          0.053          0.018         -0.112          0.115         -2.831         -1.252         -6.012         -8.657         -6.851         -0.880         -0.073         -0.066         -0.038          0.019         -0.029          0.010         -0.153          0.315          0.018          0.024          0.075          1.002         -0.086         -0.333          0.375         -0.007          0.142          0.008         -0.024         -0.010          0.020         -0.019          0.032         -0.027         -0.475          0.029          0.011          0.369         -0.025          0.013          0.282          0.008         -0.004         -0.006          0.025         -0.118          0.005         -0.059         -0.044         -0.035         -1.125         -1.049         -1.628         -0.116          0.124         -0.044         -2.139         -0.446         -0.031         -0.139         -0.028          0.017         -0.389         -0.031         -0.082         -0.097         -0.003          0.052          0.033          0.064         -0.020         -0.054         -0.036         -0.017          0.052         -0.042         -0.059         -0.013         -0.164          0.029          0.091         -0.272         -0.305         -0.119         -0.292         -4.506         -1.514         -6.825         -0.391          0.031         -1.119          0.002         -0.075          0.063          0.061         -0.454         -0.055         -4.099         -3.039         -3.210         -5.397        -59.733
       2000.000          0.009         -0.005          0.025         -0.001          0.003         -0.006          0.126         -0.004          0.098          0.011          0.071          0.007          0.006         -0.003         -0.007          0.007         -0.009          0.012         -0.030          0.016         -0.027         -0.010         -0.008         -0.001         -0.148          0.111          0.000          0.006          0.000          0.012         -0.029          0.025          0.096          0.203          0.034         -0.010          0.193          0.041         -0.022         -0.017          0.007         -0.007         -0.006          0.060          0.001         -0.012          0.005         -0.006          0.047          0.008          0.005         -0.097          0.044          0.155         -1.157        -12.317        -12.939         -6.380         -0.535         -0.048         -0.010         -0.020         -0.001         -0.010         -0.016         -0.092         -0.111          0.014          0.183          0.063          0.178         -0.033          0.083         -0.159         -0.004          0.045         -0.020         -0.027          0.007         -0.008         -0.008          0.010         -0.014         -0.140          0.005          0.000          0.140         -0.009          0.002          0.141         -0.006          0.009         -0.015          0.007          0.049         -0.062          0.054         -0.032         -0.148          0.821          0.293         -0.201          0.039          0.172         -0.289         -3.181         -0.033         -0.115         -0.074          0.003         -0.005         -0.265         -0.031         -0.026         -0.022         -0.002          0.011         -0.023          0.013          0.007         -0.038         -0.027         -0.002          0.176         -0.046         -0.088         -0.004         -0.127          0.007          0.070         -0.129         -0.070         -0.068         -0.181         -4.138         -0.774         -3.182         -0.460         -0.007          0.888          0.054          0.047         -0.165          0.043         -0.356         -0.167         -2.848         -1.627         -2.626         -3.472        -54.573
       3000.000          0.105         -0.092         -0.080         -0.001          0.020         -0.019          0.252         -0.011          0.165         -0.011          0.074          0.007          0.003          0.005         -0.003          0.001          0.004          0.031         -0.040          0.043         -0.039          0.010         -0.011         -0.003         -0.007         -0.013          0.002          0.011         -0.004          0.046         -0.078          0.085          0.137          0.388          0.078          0.016          0.133          0.035         -0.034         -0.014          0.010         -0.010          0.013          0.096          0.002          0.074          0.047         -0.006         -0.046          0.021          0.012         -0.103          0.055         -0.790         -1.095        -10.598        -10.868         -7.433         -0.468         -0.078         -0.021         -0.034         -0.006         -0.021         -0.006         -0.103          0.079          0.011          0.054          0.044          0.183         -0.008         -0.223          0.059         -0.010          0.023         -0.061         -0.014          0.015          0.022         -0.019          0.023         -0.015         -0.290          0.009          0.004          0.225         -0.015          0.009          0.185          0.003         -0.003         -0.014          0.023          0.047         -0.022          0.052         -0.055         -0.069          0.116         -0.609         -0.067         -6.573         -0.470         -0.104         -2.578         -0.155          0.022         -0.126         -0.032          0.008         -0.457         -0.049         -0.088         -0.051         -0.009          0.017          0.011          0.079         -0.034         -0.029         -0.019         -0.013          0.023         -0.007         -0.066         -0.009         -0.006          0.025          0.076         -0.022         -0.120         -0.097         -0.148         -6.036         -0.711         -4.035         -0.700         -0.037          0.384         -0.011          0.044         -0.149          0.104         -0.393          0.037         -2.803         -1.209         -2.226         -1.008        -60.224
       4000.000         -0.010          0.012          0.028         -0.002          0.001         -0.004         -0.013         -0.002         -0.032         -0.012         -0.049         -0.000         -0.003          0.003          0.004         -0.001         -0.000          0.010         -0.004          0.007         -0.006         -0.004         -0.006          0.001         -0.102          0.055         -0.003          0.003         -0.007         -0.013         -0.018         -0.421         -0.304         -0.314         -0.005         -0.014         -0.788         -0.004         -0.018          0.003         -0.002         -0.004          0.001         -0.023         -0.001         -0.000         -0.003         -0.002         -0.048         -0.010         -0.009         -0.032         -0.016         -1.325         -2.303         -4.554         -9.840         -5.188         -0.515         -0.036         -0.024         -0.012          0.005         -0.001          0.003         -0.086         -0.021          0.013          0.137          0.048          0.252         -0.025         -0.185          0.096         -0.008          0.104          0.018         -0.014          0.008          0.002         -0.004          0.007          0.001         -0.021         -0.003         -0.000          0.005         -0.001          0.001         -0.001         -0.001         -0.001         -0.009         -0.002         -0.009         -0.005          0.001         -0.021         -0.008          0.196         -0.044          0.257         -2.983         -0.139          0.005         -0.721         -0.006          0.024         -0.081         -0.018          0.001         -0.127         -0.008         -0.030         -0.027         -0.006          0.000         -0.011          0.012         -0.016         -0.022         -0.003         -0.014          0.129         -0.042         -0.060         -0.004         -0.090          0.019          0.060         -0.026         -0.138         -0.022         -0.128         -4.424         -2.027         -3.247         -0.666         -0.096          0.560         -0.005          0.068         -0.121          0.108         -0.381         -0.008         -1.311         -0.326         -1.868          0.512        -42.996
       5000.000          0.112         -0.123         -0.160          0.006          0.023         -0.021          0.301         -0.016          0.144         -0.012          0.048          0.014          0.008         -0.005         -0.003         -0.001         -0.008          0.022         -0.040          0.040         -0.019          0.011          0.003         -0.012          0.246         -0.171          0.008         -0.007          0.001          0.038          0.006          0.037         -0.155          0.066          0.059         -0.000         -0.183          0.016         -0.007         -0.009          0.009         -0.011          0.006          0.048          0.002          0.034         -0.019         -0.000          0.133          0.002          0.010         -0.054          0.004         -0.545         -0.643         -7.468         -0.415         -2.922          0.011         -0.080          0.030         -0.038         -0.018         -0.013         -0.007          0.008          0.142          0.031         -0.181         -0.030         -0.069         -0.006         -0.036          0.433         -0.012         -0.066         -0.093          0.012         -0.002          0.032         -0.028          0.017         -0.002         -0.389          0.004          0.001          0.307         -0.014          0.013          0.216          0.011         -0.009         -0.012          0.006          0.034          0.023          0.024         -0.105          0.034         -0.625         -0.563         -0.195         -1.932         -0.265         -0.168         -3.468          0.062          0.019         -0.076         -0.040          0.006         -0.483         -0.025         -0.017         -0.039         -0.002          0.025          0.007          0.076         -0.042         -0.009         -0.018         -0.017         -0.244          0.100          0.119         -0.002          0.163          0.017         -0.043          0.129         -0.164         -0.035         -0.086          0.367         -1.138         -6.116         -0.994         -0.360         -0.024         -0.042         -0.039         -0.121         -0.022         -0.399          0.041         -1.513         -0.096         -2.157         -1.916        -33.753
       6000.000          0.166         -0.188         -0.229          0.011          0.039         -0.040          0.538         -0.028          0.307         -0.008          0.057          0.022          0.016         -0.009         -0.001         -0.003          0.002          0.038         -0.101          0.069         -0.019          0.021          0.005         -0.023          0.269         -0.147          0.016         -0.008          0.028          0.046          0.010         -0.068         -0.846         -0.056          0.053          0.057         -0.781          0.017          0.017         -0.003          0.015         -0.006         -0.003          0.194         -0.002         -0.126          0.041          0.006          0.283         -0.030          0.013         -0.055         -0.078          1.082          1.298         -4.032         -5.252        -10.332         -0.053         -0.132          0.042         -0.039         -0.023         -0.027         -0.033         -0.038          0.052          0.062         -0.197         -0.059         -0.202          0.045          0.161          0.022          0.012         -0.370         -0.383          0.026         -0.008          0.043         -0.044          0.053          0.007         -0.772          0.012          0.007          0.605         -0.049          0.020          0.464          0.015         -0.022         -0.006          0.014          0.322          0.052          0.006         -0.073          0.022         -0.159         -0.484          0.005         -1.442          0.034         -0.007         -2.674         -0.180          0.062         -0.108         -0.065          0.038         -0.900         -0.057         -0.057          0.067          0.075          0.050          0.198          0.158         -0.056          0.011          0.010         -0.031         -0.466          0.361          0.365          0.021          0.302          0.042         -0.084          0.261         -0.340         -0.081         -0.570          1.128         -2.020         -3.101          0.037         -0.165         -0.009         -0.036         -0.049          0.006          0.083         -0.479          0.213         -2.576         -0.540         -2.703         -6.750        -40.870
       7000.000          0.414         -0.248         -0.284         -0.014          0.011         -0.002          0.302          0.049          0.126         -0.323         -1.524          0.062          0.050         -0.057         -0.088          0.117         -0.090          0.056         -0.077         -0.016         -0.037         -0.007         -0.027          0.035          0.224         -0.237         -0.012          0.043          0.011          0.002         -0.005         -0.109         -0.918         -0.140         -0.209         -1.231         -4.410         -5.159         -4.097         -1.004         -0.142         -1.067         -0.072          0.248         -0.060          0.563          0.607         -0.250         -2.569         -0.221         -0.037         -0.068         -0.028         -0.059         -0.084         -0.003          0.084         -0.308          0.020         -0.060         -0.010          0.139          0.015         -0.016         -0.019         -0.005          0.364          0.003         -0.184         -0.002         -0.108          0.002          0.091         -0.083          0.002         -0.099         -0.092          0.004         -0.002          0.004         -0.011          0.005         -0.010         -0.180          0.013          0.009          0.137         -0.002          0.011          0.129          0.004         -0.002          0.002         -0.003          0.076          0.004         -0.003          0.000          0.000          0.037          0.001         -0.001         -0.003         -0.001          0.000          0.002         -0.003          0.004         -0.001         -0.005          0.001         -0.115          0.003         -0.009         -0.007         -0.015         -0.008         -0.018         -0.010         -0.003          0.006         -0.006          0.003         -0.131          0.096          0.110         -0.002          0.167          0.005          0.002         -0.001          0.008         -0.013         -0.008          0.003          0.006         -0.003         -0.001          0.003          0.024          0.001         -0.000          0.001          0.000         -0.002         -0.004         -0.009         -0.008          0.001         -0.111        -22.155
       8000.000          0.038         -0.034         -0.030         -0.002          0.004         -0.006          0.140         -0.004          0.147          0.056          0.047          0.007          0.010         -0.009         -0.012          0.007         -0.021          0.003         -0.012         -0.004         -0.018         -0.003         -0.004          0.001          0.013         -0.009         -0.001          0.001         -0.002          0.001         -0.008         -0.090         -5.998         -0.088         -0.126         -0.203          0.912         -0.376         -0.104         -0.151          0.007         -0.008         -0.004         -0.040         -0.001         -0.259         -0.132         -0.017          0.286         -0.084         -0.023         -0.078         -0.172          0.220         -4.209         -0.479         -0.277         -0.195         -0.022         -0.074         -0.017         -0.070         -0.004         -0.007         -0.006         -0.009          0.014          0.003          0.002          0.003          0.028          0.005         -0.018          0.028         -0.001         -0.000         -0.017         -0.001          0.001          0.001         -0.004          0.005         -0.007         -0.117          0.007          0.002          0.103         -0.007          0.002          0.057          0.001          0.002         -0.001          0.001          0.006         -0.000          0.002         -0.003          0.004         -0.038          0.004         -0.005          0.001          0.002          0.003         -0.006          0.004          0.001          0.001          0.001         -0.003         -0.075         -0.003          0.002          0.015          0.019          0.010         -0.003         -0.002          0.003         -0.004         -0.000         -0.001         -0.010          0.016          0.003         -0.000          0.007          0.003          0.004         -0.005          0.006         -0.006         -0.013         -0.034          0.021         -0.016          0.009         -0.001         -0.006         -0.004         -0.005          0.007          0.000         -0.001          0.007         -0.009          0.001          0.001          0.177        -11.424
       9000.000          0.254         -0.145         -0.071         -0.003          0.007          0.001          0.178          0.019          0.239          0.074          0.163         -0.000          0.000         -0.006         -0.004          0.027         -0.019          0.019          0.006         -0.003         -0.033         -0.008         -0.009         -0.006          0.038         -0.012         -0.000          0.002          0.020         -0.002         -0.018         -0.128         -4.763         -0.126         -0.055         -0.425         -1.459         -8.041         -1.265         -0.290         -0.131          0.019         -0.038          0.242         -0.034          1.015          0.666         -0.201         -1.460         -2.256         -2.464         -3.332         -2.745          0.378         -0.385         -0.413         -0.196         -0.402         -0.051         -1.606         -0.006         -0.203         -0.079         -0.036         -0.097         -0.063         -0.175          0.014          0.012         -0.007          0.139          0.007         -0.053          0.033         -0.000          0.011         -0.009          0.000         -0.002          0.000         -0.005          0.002         -0.006         -0.103          0.009          0.005          0.088          0.000          0.005          0.075         -0.000         -0.000          0.002          0.002         -0.001          0.002          0.001         -0.001          0.002         -0.024          0.001         -0.003          0.001         -0.000          0.003         -0.002          0.000          0.002          0.001         -0.002          0.000         -0.047          0.000         -0.005          0.001          0.000         -0.001         -0.017         -0.006          0.003         -0.003          0.002         -0.001         -0.004          0.007         -0.006         -0.002         -0.018          0.008          0.006         -0.003          0.007         -0.008         -0.009          0.001          0.003         -0.007          0.001          0.002         -0.027          0.001         -0.003          0.004         -0.002         -0.001         -0.003         -0.007          0.001         -0.006          0.077        -29.753
      10000.000         -0.099          0.015         -0.030          0.004          0.002         -0.009         -0.091         -0.014         -0.163         -0.021         -0.269          0.004         -0.002          0.001          0.010         -0.001          0.004          0.006         -0.014          0.010         -0.006          0.004         -0.000         -0.031          0.168         -0.263          0.005         -0.080          0.002         -0.037         -0.132          0.046         -7.238          0.006          0.030         -0.117         -3.846         -0.589         -0.182         -0.126         -0.038         -0.008          0.003         -0.093          0.013         -0.408         -0.260         -0.004          0.311         -1.678         -2.275         -1.536         -4.409         -4.339         -2.017          3.363          1.237         -0.235         -0.483         -2.894         -0.262         -0.401         -0.128          0.010          0.089         -0.067          0.178         -0.043         -0.376         -0.007         -0.558         -0.019          0.294         -0.209          0.003         -0.167         -0.086          0.006          0.003          0.002         -0.003         -0.004          0.004          0.073         -0.007         -0.002         -0.066          0.002          0.001         -0.038          0.003         -0.005         -0.003         -0.007          0.082          0.002         -0.011          0.006         -0.009          0.069         -0.001         -0.009          0.003          0.009         -0.010          0.011         -0.004         -0.003          0.000         -0.009          0.002          0.034          0.004         -0.008         -0.007         -0.002         -0.009          0.011          0.008         -0.009          0.010         -0.010          0.004         -0.170          0.079          0.161          0.003          0.232         -0.019         -0.025          0.019         -0.020         -0.021          0.016          0.002         -0.024         -0.001         -0.016          0.019         -0.036          0.006          0.008         -0.004         -0.008          0.004          0.005          0.003         -0.008          0.035         -0.593        -30.778
      11000.000         -0.107          0.066          0.003          0.006          0.005         -0.005         -0.029         -0.008         -0.080         -0.018         -0.111         -0.001         -0.005          0.003          0.007         -0.002          0.005          0.005         -0.012          0.011         -0.015          0.005          0.007         -0.027          0.131         -0.090          0.022         -0.076         -0.003          0.020         -0.127          0.058         -7.044         -0.012          0.028         -0.126         -2.031         -0.874         -0.214         -0.120         -0.034         -0.001         -0.005         -0.081          0.002         -0.281         -0.153         -0.047          0.199         -3.109         -2.594         -2.841         -5.727         -3.688         -2.900          2.593          1.225         -0.303         -0.559         -1.050         -0.064         -0.267         -0.149         -0.054          0.076         -0.017         -0.055         -0.014         -0.158         -0.018         -0.331         -0.011          0.206         -0.153          0.005         -0.134         -0.069          0.005         -0.009          0.004          0.000          0.002          0.002          0.016         -0.003         -0.001         -0.022          0.001          0.001         -0.012          0.003         -0.004          0.000         -0.002          0.071          0.006         -0.007          0.009         -0.010          0.084         -0.010         -0.023         -0.037          0.013         -0.008          0.012         -0.011          0.002         -0.001         -0.010          0.002         -0.011          0.003         -0.007         -0.007         -0.000         -0.006          0.023          0.013         -0.008          0.005         -0.006         -0.001         -0.135          0.072          0.143         -0.002          0.161         -0.013         -0.016          0.018         -0.018         -0.009          0.004          0.012         -0.027          0.001         -0.017          0.025          0.005          0.003          0.008         -0.002          0.001          0.002          0.007          0.004         -0.016          0.036         -0.717        -31.725