# Time	LEU-18	GLU-19	ASP-20	GLY-21	ALA-22	TYR-23	ARG-24	ILE-25	LYS-26	GLN-27	LYS-28	GLY-29	ILE-30	LEU-31	GLY-32	TYR-33	SER-34	GLN-35	ILE-36	GLY-37	ALA-38	GLY-39	VAL-40	TYR-41	LYS-42	GLU-43	GLY-44	THR-45	PHE-46	HIS-47	THR-48	MET-49	TRP-50	HIS-51	VAL-52	THR-53	ARG-54	GLY-55	ALA-56	VAL-57	LEU-58	MET-59	HIS-60	LYS-61	GLY-62	LYS-63	ARG-64	ILE-65	GLU-66	PRO-67	SER-68	TRP-69	ALA-70	ASP-71	VAL-72	LYS-73	LYS-74	ASP-75	LEU-76	ILE-77	SER-78	TYR-79	GLY-80	GLY-81	GLY-82	TRP-83	LYS-84	LEU-85	GLU-86	GLY-87	GLU-88	TRP-89	LYS-90	GLU-91	GLY-92	GLU-93	GLU-94	VAL-95	GLN-96	VAL-97	LEU-98	ALA-99	LEU-100	GLU-101	PRO-102	GLY-103	LYS-104	ASN-105	PRO-106	ARG-107	ALA-108	VAL-109	GLN-110	THR-111	LYS-112	PRO-113	GLY-114	LEU-115	PHE-116	LYS-117	THR-118	ASN-119	THR-120	GLY-121	THR-122	ILE-123	GLY-124	ALA-125	VAL-126	SER-127	LEU-128	ASP-129	PHE-130	SER-131	PRO-132	GLY-133	THR-134	SER-135	GLY-136	SER-137	PRO-138	ILE-139	VAL-140	ASP-141	LYS-142	LYS-143	GLY-144	LYS-145	VAL-146	VAL-147	GLY-148	LEU-149	TYR-150	GLY-151	ASN-152	GLY-153	VAL-154	VAL-155	THR-156	ARG-157	SER-158	GLY-159	ALA-160	TYR-161	VAL-162	SER-163	ALA-164	ILE-165	ALA-166	ASN-167	UNK1-168	
          0.000          0.044         -0.031         -0.111         -0.009          0.021         -0.004          0.025         -0.006          0.001          0.002         -0.002          0.000         -0.000         -0.000          0.001         -0.002          0.003         -0.005          0.027         -0.017          0.051          0.040          0.012         -0.011          0.477         -0.247          0.005         -0.020         -0.012         -0.045          0.139         -0.421         -0.389         -0.421         -0.066         -0.005         -0.391         -0.035          0.015          0.007         -0.001          0.003         -0.001          0.008          0.000          0.021         -0.014          0.008          0.006         -0.022         -0.007          0.014         -0.122          3.485          0.482          1.757         11.683          3.453          0.781          0.027          0.088          0.026         -0.017         -0.012         -0.018          3.555          0.320         -0.067         -0.287          0.136         -0.068         -0.071          0.013         -0.053          0.006         -0.023         -0.070          0.009         -0.028          0.037         -0.000          0.006          0.005         -0.061         -0.003          0.001          0.022         -0.005          0.008          0.021          0.014         -0.017          0.005          0.035          0.060          0.036         -0.047          0.086         -0.206          0.716          3.438          0.105          2.313         -0.314          0.365          0.554         -0.595          0.244         -0.124         -0.001          0.035         -0.201          0.003         -0.001          0.031          0.006         -0.031         -0.086         -0.054         -0.123          0.102          0.070         -0.015         -0.200          0.031          0.104         -0.003          0.201          0.040          4.032          2.909          2.166         -0.043          0.047          5.362          0.236          0.865         -0.690          0.194          1.540         -0.021          0.106         -0.153          0.156          0.019          0.134          2.728          5.610          2.304         23.304         41.669
       1000.000         -0.047          0.024          0.035          0.003         -0.029          0.026         -0.133          0.002         -0.037         -0.031         -0.008          0.001          0.000         -0.001          0.002         -0.009         -0.001         -0.053          0.036         -0.062          0.061         -0.035          0.022         -0.009         -0.026          0.038          0.001         -0.016          0.010         -0.072         -0.025         -0.444         -0.343         -0.577         -0.116          0.002         -0.238         -0.074          0.035          0.015         -0.015          0.006          0.003         -0.019         -0.002         -0.005         -0.042          0.015          0.049         -0.043         -0.030          0.086         -0.126          1.278          1.036          9.681         14.122          4.536          0.305          0.070          0.036          0.037         -0.009          0.025         -0.010         -0.011         -0.123          0.014          0.003          0.040         -0.558         -0.053         -0.025          0.039         -0.019          0.067          0.042         -0.013          0.000         -0.029          0.004         -0.029          0.014          0.139         -0.013         -0.004         -0.064          0.011         -0.009         -0.067         -0.006          0.012         -0.000         -0.012         -0.051         -0.032          0.019          0.006         -0.027          0.064          1.771          0.489          0.442         -0.062          0.032          0.218         -0.222          0.014          0.037          0.012         -0.059          0.198         -0.002          0.062          0.072          0.007         -0.008         -0.068         -0.092          0.033          0.031         -0.007          0.017          0.018         -0.047         -0.006         -0.003          0.024          0.015          0.209          0.510          0.543          0.054          0.125          6.138          0.787          0.843         -0.098         -0.016          0.104          0.002          0.019         -0.028         -0.062          0.137         -0.166          2.474          2.477          1.928         11.290         27.769
       2000.000         -0.093          0.036          0.065          0.016         -0.043          0.049         -0.210         -0.016         -0.067         -0.012         -0.014         -0.000         -0.000          0.002          0.002         -0.013          0.011         -0.081          0.028         -0.091          0.076         -0.063          0.029         -0.002         -0.169          0.096         -0.001         -0.026          0.019         -0.126          0.142         -0.234         -0.487         -0.512         -0.154          0.005         -0.293         -0.108          0.066          0.022         -0.018          0.029          0.009         -0.026         -0.001         -0.011         -0.059          0.014          0.080         -0.055         -0.039          0.125         -0.227          1.284          1.441         14.275         19.550         15.147          0.280          0.103          0.063          0.078         -0.002          0.052          0.003         -0.000         -0.250         -0.014          0.168          0.045          0.061          0.034         -0.200          0.027         -0.009          0.075          0.052         -0.014          0.034         -0.053          0.006         -0.042          0.020          0.180         -0.007         -0.003         -0.086          0.013         -0.013         -0.111         -0.018          0.021         -0.019          0.017         -0.054         -0.073          0.023          0.002         -0.015         -0.717         -0.687         -0.888         -0.229         -0.360          0.005          0.644          0.103         -0.188          0.136          0.096         -0.051          0.271         -0.012          0.099          0.103          0.038          0.006         -0.024         -0.133          0.101         -0.010         -0.008          0.034          0.140         -0.064         -0.049         -0.010         -0.038         -0.012          0.024         -0.248          0.304          0.042         -0.023          3.949          0.594         -0.296          0.263         -0.112         -0.777         -0.079         -0.057          0.135         -0.162          0.383         -0.351          2.200          3.242          1.298          7.202         23.400
       3000.000         -0.043          0.023          0.029          0.007         -0.036          0.027         -0.163          0.005         -0.056          0.008         -0.010         -0.001         -0.000         -0.000          0.004         -0.005         -0.003         -0.054          0.045         -0.071          0.063         -0.033          0.014         -0.001         -0.083          0.064         -0.003         -0.016          0.009         -0.080          0.114         -0.440         -0.551         -1.018         -0.138         -0.017         -0.587         -0.067          0.049          0.019         -0.012          0.014         -0.015         -0.008         -0.001         -0.022         -0.035          0.013          0.046         -0.044         -0.021          0.089         -0.129         -1.859          1.705         17.585         21.591         18.766          0.272          0.081          0.023          0.048          0.010          0.030          0.008         -0.000         -0.126         -0.031          0.035         -0.019         -0.009         -0.003          0.020         -0.026          0.005         -0.011          0.006         -0.007         -0.001         -0.038          0.024         -0.029          0.018          0.118         -0.015         -0.005         -0.048          0.013         -0.013         -0.035         -0.008          0.009          0.003         -0.014          0.018          0.001         -0.030         -0.002          0.077         -0.137          0.497         -0.191          8.145          0.354          0.151          0.253         -0.136         -0.089          0.056          0.038         -0.041          0.171          0.019          0.122          0.096          0.024          0.001         -0.007         -0.129          0.057         -0.001          0.003          0.013          0.039         -0.001         -0.009          0.003         -0.017         -0.028         -0.068         -0.095          0.112          0.103          0.069          7.461          0.137          0.209          0.174         -0.048         -0.183          0.004         -0.027          0.065         -0.128          0.155         -0.183          1.486          0.544          1.541          9.054         29.774
       4000.000          0.011         -0.011         -0.013          0.006         -0.010          0.013          0.007          0.002          0.009         -0.002          0.001         -0.001         -0.001          0.000          0.000          0.001          0.000         -0.018         -0.001         -0.033          0.031         -0.020          0.001          0.002          0.046         -0.021         -0.002         -0.001          0.008         -0.048          0.032         -0.300         -0.478         -0.172         -0.081          0.001          0.167         -0.030          0.004          0.000          0.000         -0.002          0.004         -0.001          0.000          0.012          0.009          0.003         -0.017         -0.012         -0.004          0.067         -0.120         -1.089          4.759          6.982         16.975          7.451          0.173          0.066          0.002          0.021          0.003          0.011          0.009         -0.065          0.035          0.024         -0.036          0.056         -0.004          0.022          0.031         -0.172          0.023         -0.102         -0.059         -0.001          0.003         -0.018         -0.001         -0.019         -0.002         -0.014          0.000          0.001          0.005         -0.001          0.001          0.011         -0.002          0.002          0.011         -0.009          0.061          0.006         -0.048          0.044         -0.060          0.200          0.138          0.023          4.640         -0.055         -0.010          0.321         -0.238         -0.096          0.025          0.012         -0.018         -0.011          0.010          0.025          0.005          0.008         -0.001          0.033         -0.059          0.056         -0.020          0.013          0.005         -0.082          0.047          0.010          0.000          0.039          0.052          0.050         -0.144          0.158          0.014         -0.109         12.030          2.557          0.960          0.274          0.035          0.107         -0.002          0.015         -0.006         -0.119          0.247         -0.263          0.709          0.230          3.383          5.595         13.402
       5000.000         -0.001          0.001          0.003          0.000         -0.003          0.002         -0.009          0.001         -0.001          0.001         -0.001          0.000          0.000         -0.000          0.000         -0.000          0.000         -0.003          0.002         -0.007          0.004         -0.004          0.000          0.001         -0.011          0.007         -0.001          0.001          0.000         -0.011         -0.001         -0.006          0.048         -0.004         -0.011          0.002          0.060          0.012         -0.008         -0.004          0.000         -0.000         -0.000         -0.000         -0.000          0.001          0.002         -0.001         -0.004          0.008          0.001         -0.008          0.014          0.185          0.740          9.698         -0.578          0.305         -0.061          0.017         -0.008          0.001          0.002          0.000          0.000          0.001         -0.011         -0.006          0.003          0.011         -0.007          0.006          0.023         -0.228          0.019         -0.083         -0.080         -0.001          0.001         -0.002          0.002         -0.001         -0.000          0.005         -0.001         -0.000         -0.002          0.000         -0.001          0.001          0.001         -0.005         -0.008         -0.008          0.096         -0.005         -0.019          0.013          0.006          0.506          3.276          0.129          4.974          0.129         -0.131          0.492         -0.025         -0.035          0.007         -0.001         -0.004         -0.027         -0.002          0.002          0.007          0.001          0.001         -0.006         -0.017          0.009         -0.003          0.006         -0.005         -0.027          0.061          0.011          0.003          0.002          0.001          0.004         -0.029          0.035          0.016          0.006         -0.297          0.223          0.337         -0.063          0.056          0.315          0.025          0.034         -0.004         -0.058          0.078         -0.032          0.262         -0.132          0.268          0.698         13.877
       6000.000         -0.003          0.005          0.006         -0.000         -0.012          0.010         -0.046          0.004         -0.011          0.008          0.001          0.000          0.000         -0.000         -0.000          0.000         -0.001         -0.008          0.015         -0.024          0.005         -0.011         -0.005          0.005         -0.018          0.002         -0.005          0.006         -0.019         -0.009         -0.038         -0.210          0.333         -0.612         -0.048          0.005          0.661          0.059         -0.038         -0.016          0.003          0.002          0.002          0.001         -0.002          0.010          0.021         -0.008         -0.028          0.044          0.017         -0.042          0.156         -2.533         -1.510          4.192          3.751         11.380         -0.144          0.007         -0.033         -0.018          0.008         -0.009          0.011          0.007          0.037         -0.021          0.017          0.034          0.056         -0.032         -0.029         -0.249          0.014         -0.039         -0.018         -0.015          0.006         -0.014          0.012         -0.009         -0.003          0.040         -0.003         -0.002         -0.019          0.005         -0.005         -0.011         -0.002          0.003          0.005         -0.005          0.092          0.025         -0.050          0.104         -0.167          0.503          0.410          0.067          3.307         -0.487         -0.109          0.661         -0.002          0.011         -0.072          0.031          0.014         -0.071         -0.010          0.011          0.007         -0.004          0.014         -0.109         -0.061          0.025         -0.023          0.002          0.002          0.027          0.019         -0.006         -0.004         -0.031         -0.013          0.053         -0.168          0.092          0.083          0.276          3.149          0.103          1.072         -0.585          0.199          0.642          0.042          0.075         -0.163          0.108         -0.000         -0.096          0.381          0.178          5.950          9.600         24.850
       7000.000          0.888          1.577         -0.372          0.019          0.424         -0.061         -0.761         -0.184         -1.044         -0.813         -3.131          0.099          0.825         -0.356         -0.360         -0.745          1.270         -0.183         -0.302         -0.011          0.054          0.003          0.065         -0.021         -0.342          2.034          0.063         -0.116          0.015         -0.011         -0.002          0.167          1.446          0.489          0.062          3.314          3.900          2.335         -0.813          0.733         -0.230          0.493          0.391         -1.138          0.194          0.103         -1.956         -0.052         -0.580         -0.226         -0.212          0.090          0.569         -0.294         -0.012          1.339         -0.807          0.332         -0.056         -0.042         -0.018         -0.136          0.101         -0.044         -0.261          0.780          0.396         -0.040         -0.550          0.169         -1.585         -0.030          0.572         -0.164         -0.406          1.190         -0.188          0.610         -0.446         -0.031          0.026          0.145          0.030          1.559         -0.218          0.087          0.283          0.704         -0.519         -0.597         -0.418          0.073          1.225          0.436         -1.102          0.114          0.055          0.007         -0.103         -1.642          0.038         -0.172          0.329          0.105          0.264          0.043          0.124         -0.054         -0.319         -1.024         -0.031          0.102         -0.057         -0.574         -0.051          0.062          0.010          0.390          0.003          0.029          0.010         -0.031          0.026         -0.598          1.096         -0.297          0.263         -0.428         -0.218         -0.132         -0.103         -0.268         -0.031         -0.190         -0.065          0.388          0.023          0.049          0.237         -2.414         -0.813          0.123         -0.067          0.457         -0.032          0.073         -0.073         -0.002          0.031          0.627         -0.092
       8000.000         -0.587         -1.691          0.191          0.170         -0.399          0.182         -0.906         -0.033         -0.349         -0.201          0.476         -0.653          0.188         -0.472         -0.223         -0.715         -0.502         -0.240         -0.057         -0.015          0.023         -0.015          0.000          0.362         -0.146         -1.250         -0.018          0.222         -0.015         -0.019          0.007          0.023          3.430          0.217         -0.148          0.191         -2.405         -0.200         -0.175          0.232          0.039         -0.198          0.260         -1.962         -0.093         -0.717         -0.786         -0.029          0.462         -0.504         -0.251         -0.189         -0.054          0.326          0.596         -0.642          0.132          0.264         -0.010         -0.021         -0.027          0.093         -0.041         -0.059          0.003          0.225          0.255          0.156          1.295          0.190         -1.527         -0.837         -0.677         -2.545          0.092          0.109         -0.038         -0.036         -0.016          0.003         -0.056         -0.062          0.005         -1.082         -0.336         -0.135         -0.035         -0.157          0.009          0.148         -0.134          0.082          0.222         -0.263          0.523         -0.218         -0.066         -0.198         -0.076         -0.865          0.008         -0.384          0.112          0.059         -0.504         -0.063         -0.181         -0.017         -0.101         -0.195         -0.093         -2.961         -0.271          0.076         -0.098         -0.159         -0.133         -0.425         -0.003          0.006          0.000          0.002         -0.071          0.100         -0.961          0.136         -0.117         -0.422         -0.072         -0.524         -0.261         -0.324         -0.456          0.102          0.173          0.333         -0.050         -0.036         -0.121          0.387         -0.164         -0.034          0.018          1.328          0.038          0.187          0.121         -0.055          0.036          0.517          0.756
       9000.000          0.098          1.216         -1.405          0.046         -0.409         -0.524         -0.285         -0.011         -0.059          0.070         -1.061          0.273         -0.058         -0.745         -0.111         -1.553          0.083         -0.074          0.103          0.032          0.019          0.022         -0.060         -0.424         -2.016          1.136         -0.079         -0.074         -0.132          0.075         -0.069          0.064          1.229         -0.011          0.157          0.298          2.865          9.064          0.139          0.556          0.088         -0.020          1.035          1.225          0.158         -0.438         -0.343          0.069         -0.679          1.916          0.762          1.020         -0.026         -3.357         -0.084          0.020          0.350         -0.530         -0.181          0.392         -0.500         -0.263          0.304         -0.191         -0.089          0.222         -0.120          0.223          1.325          0.024         -1.955         -0.352          0.947         -1.017         -0.962         -2.535         -1.928         -0.097          0.679          0.019         -0.026         -0.114         -0.004          0.381          0.232          0.296          0.182          1.053         -0.052          0.187          0.663         -0.149          0.072          0.108          1.538          0.041          0.073         -0.159          0.122          0.489         -0.242         -0.131          0.164          0.286          0.121          0.031          0.129         -0.030         -0.098         -0.552          0.006          2.135         -0.207          0.770          0.289         -0.201         -0.067         -0.338         -0.002          0.054          0.045         -0.029         -0.009         -0.553         -0.059          0.906         -0.178          0.252         -0.113         -0.049          0.009          0.178         -0.087          0.254         -0.991         -1.038         -0.104          0.172          0.005         -1.768         -2.453         -0.374         -0.024         -1.254         -0.006         -0.007          0.093         -0.297          0.053         -0.307          8.783
      10000.000          0.103         -1.899         -0.855         -0.255         -0.433         -0.012         -0.197         -0.050         -0.916         -0.210         -1.070          0.129         -0.070         -0.153          0.152          0.274         -0.030          0.284         -0.080         -0.016          0.030          0.005          0.015          0.081          1.270         -1.499          0.164          0.100          0.007         -0.077          0.127         -0.144          3.168         -0.167         -0.487          0.212          0.688          0.960         -0.203         -0.551          0.065         -0.924         -0.656          1.672          0.285          0.110         -1.815          0.035          0.541          1.543         -0.216          1.587          2.402          1.220         -0.619         -0.337         -2.344          1.244          0.362          0.195         -0.234          0.143          0.184          0.095          0.048         -0.252         -1.067          0.120          0.105         -0.237         -2.607          0.590          0.506         -1.670         -0.419         -1.101         -1.279         -0.172         -0.856         -0.066          0.002          0.077          0.021          1.122          0.155          0.192         -1.758          0.033          0.111         -0.959         -0.267          0.009         -0.004          0.138          0.049          0.327         -0.079         -0.175          0.045          1.085          0.032         -0.140         -0.520          0.044          0.017         -0.065          0.138         -0.026         -0.053         -0.394         -0.070         -0.317         -0.307          0.156         -0.092         -0.061         -0.119         -0.001         -0.010          0.001          0.055          0.022          0.007          2.262         -0.191         -2.137          0.084         -0.501          0.053          0.686         -0.268         -0.153         -0.407          0.029         -0.092         -0.285         -0.280         -0.338         -0.240          0.084         -0.024          0.447         -0.043          0.602          0.007         -0.227         -0.008          0.040         -0.009         -1.829          8.173
      11000.000         -0.996          0.153          3.558         -0.115         -0.357         -0.335         -0.785          0.053          0.833         -0.139          0.024         -0.031          0.110         -0.086          0.173         -0.433         -1.061          0.325         -0.224         -0.079          0.029         -0.005         -0.031         -0.190         -0.523         -2.331         -0.127          0.163         -0.015         -0.043          0.112         -0.079          1.945         -0.218         -0.268          0.061         -3.052          0.257          0.011          0.015          0.053          0.089          0.328          0.138          0.459          0.133          0.956          0.124          0.966          1.823          0.466          0.794          3.646         -0.513         -0.751         -0.867         -0.737         -0.216          0.404         -0.020         -0.174          0.225          0.110         -0.139         -0.021          0.200         -0.524          0.287          0.385          0.762         -0.474         -1.338          0.528         -2.237          0.336          0.390         -0.283          0.051         -0.459         -0.004          0.002          0.007          0.062         -0.145          0.047         -0.611         -0.236          0.270         -0.485         -0.145         -0.429         -0.063         -0.558         -0.536         -0.809         -0.099         -0.073          0.111          0.071         -1.357         -0.177         -0.551          0.253         -0.088          0.017         -0.061         -0.105          0.063          0.105          0.013         -0.176         -0.347         -0.114          0.119         -0.103         -0.212         -0.011         -0.554         -0.011          0.040         -0.005         -0.009         -0.251          0.203         -3.035         -0.658         -0.080         -1.036         -0.372         -0.302         -0.190         -0.062          0.030          0.213         -0.172          0.003         -0.104         -0.086          0.384         -0.680         -1.413          0.029         -0.004         -0.001          0.192         -0.115          0.291          0.079          0.164          0.232          6.657