# Time	LEU-18	GLU-19	ASP-20	GLY-21	ALA-22	TYR-23	ARG-24	ILE-25	LYS-26	GLN-27	LYS-28	GLY-29	ILE-30	LEU-31	GLY-32	TYR-33	SER-34	GLN-35	ILE-36	GLY-37	ALA-38	GLY-39	VAL-40	TYR-41	LYS-42	GLU-43	GLY-44	THR-45	PHE-46	HIS-47	THR-48	MET-49	TRP-50	HIS-51	VAL-52	THR-53	ARG-54	GLY-55	ALA-56	VAL-57	LEU-58	MET-59	HIS-60	LYS-61	GLY-62	LYS-63	ARG-64	ILE-65	GLU-66	PRO-67	SER-68	TRP-69	ALA-70	ASP-71	VAL-72	LYS-73	LYS-74	ASP-75	LEU-76	ILE-77	SER-78	TYR-79	GLY-80	GLY-81	GLY-82	TRP-83	LYS-84	LEU-85	GLU-86	GLY-87	GLU-88	TRP-89	LYS-90	GLU-91	GLY-92	GLU-93	GLU-94	VAL-95	GLN-96	VAL-97	LEU-98	ALA-99	LEU-100	GLU-101	PRO-102	GLY-103	LYS-104	ASN-105	PRO-106	ARG-107	ALA-108	VAL-109	GLN-110	THR-111	LYS-112	PRO-113	GLY-114	LEU-115	PHE-116	LYS-117	THR-118	ASN-119	THR-120	GLY-121	THR-122	ILE-123	GLY-124	ALA-125	VAL-126	SER-127	LEU-128	ASP-129	PHE-130	SER-131	PRO-132	GLY-133	THR-134	SER-135	GLY-136	SER-137	PRO-138	ILE-139	VAL-140	ASP-141	LYS-142	LYS-143	GLY-144	LYS-145	VAL-146	VAL-147	GLY-148	LEU-149	TYR-150	GLY-151	ASN-152	GLY-153	VAL-154	VAL-155	THR-156	ARG-157	SER-158	GLY-159	ALA-160	TYR-161	VAL-162	SER-163	ALA-164	ILE-165	ALA-166	ASN-167	UNK1-168	
          0.000          0.000          0.000          0.000          0.000          0.000          0.000          0.000          0.000          0.000          0.000          0.000          0.000          0.000          0.000          0.000          0.000          0.000          0.000          0.000          0.000          0.000          0.000          0.000          0.000          0.000          0.000          0.000          0.000          0.000          0.000          0.000         -0.051          0.000          0.000          0.000          0.000          0.000          0.000          0.000          0.000          0.000          0.000          0.000          0.000          0.000          0.000          0.000          0.000          0.000          0.000          0.000          0.000          0.000          0.000          0.000         -0.415         -0.557          0.000         -0.376          0.000          0.000          0.000          0.000          0.000          0.000         -0.379          0.000          0.000          0.000          0.000          0.000          0.000          0.000          0.000          0.000          0.000          0.000          0.000          0.000          0.000          0.000          0.000          0.000          0.000          0.000          0.000          0.000          0.000          0.000          0.000          0.000          0.000          0.000          0.000          0.000          0.000          0.000          0.000          0.000          0.000         -0.051          0.000         -0.228          0.000          0.000         -0.291          0.000          0.000          0.000          0.000          0.000          0.000          0.000          0.000          0.000          0.000          0.000          0.000          0.000          0.000          0.000          0.000          0.000          0.000          0.000          0.000          0.000          0.000          0.000         -0.228         -0.206         -0.181          0.000          0.000         -0.379          0.000         -0.479          0.000          0.000          0.000          0.000          0.000          0.000          0.000          0.000          0.000         -0.247         -0.434         -0.258         -0.894         -8.979
       1000.000          0.000          0.000          0.000          0.000          0.000          0.000          0.000          0.000          0.000          0.000          0.000          0.000          0.000          0.000          0.000          0.000          0.000          0.000          0.000          0.000          0.000          0.000          0.000          0.000          0.000          0.000          0.000          0.000          0.000          0.000          0.000          0.000          0.000          0.000          0.000          0.000          0.000          0.000          0.000          0.000          0.000          0.000          0.000          0.000          0.000          0.000          0.000          0.000          0.000          0.000          0.000          0.000          0.000          0.000          0.000         -0.882         -0.753          0.000         -0.205          0.000          0.000          0.000          0.000          0.000          0.000          0.000          0.000          0.000          0.000          0.000          0.000          0.000          0.000          0.000          0.000          0.000          0.000          0.000          0.000          0.000          0.000          0.000          0.000          0.000          0.000          0.000          0.000          0.000          0.000          0.000          0.000          0.000          0.000          0.000          0.000          0.000          0.000          0.000          0.000          0.000         -0.127          0.000         -0.272          0.000          0.000         -0.205          0.000          0.000          0.000          0.000          0.000          0.000          0.000          0.000          0.000          0.000          0.000          0.000          0.000          0.000          0.000          0.000          0.000          0.000          0.000          0.000          0.000          0.000          0.000          0.000          0.000          0.000          0.000          0.000         -0.439          0.000         -1.095          0.000          0.000          0.000          0.000          0.000          0.000          0.000          0.000          0.000         -0.376         -0.374         -0.344         -0.968         -6.834
       2000.000          0.000          0.000          0.000          0.000          0.000          0.000          0.000          0.000          0.000          0.000          0.000          0.000          0.000          0.000          0.000          0.000          0.000          0.000          0.000          0.000          0.000          0.000          0.000          0.000          0.000          0.000          0.000          0.000          0.000          0.000          0.000          0.000          0.000          0.000          0.000          0.000          0.000          0.000          0.000          0.000          0.000          0.000          0.000          0.000          0.000          0.000          0.000          0.000          0.000          0.000          0.000          0.000          0.000          0.000          0.000         -1.175         -0.779         -0.076          0.000          0.000          0.000          0.000          0.000          0.000          0.000          0.000          0.000          0.000          0.000          0.000          0.000          0.000          0.000          0.000          0.000          0.000          0.000          0.000          0.000          0.000          0.000          0.000          0.000          0.000          0.000          0.000          0.000          0.000          0.000          0.000          0.000          0.000          0.000          0.000          0.000          0.000          0.000          0.000          0.000          0.000         -0.120          0.000          0.000          0.000          0.000         -0.222          0.000          0.000          0.000          0.000          0.000          0.000          0.000          0.000          0.000          0.000          0.000          0.000          0.000          0.000          0.000          0.000          0.000          0.000          0.000          0.000          0.000          0.000          0.000          0.000          0.000          0.000          0.000          0.000         -0.336          0.000         -0.718          0.000          0.000          0.000          0.000          0.000          0.000          0.000          0.000          0.000         -0.188         -0.304         -0.198         -0.408         -6.569
       3000.000          0.000          0.000          0.000          0.000          0.000          0.000          0.000          0.000          0.000          0.000          0.000          0.000          0.000          0.000          0.000          0.000          0.000          0.000          0.000          0.000          0.000          0.000          0.000          0.000          0.000          0.000          0.000          0.000          0.000          0.000          0.000          0.000          0.000          0.000          0.000          0.000          0.000          0.000          0.000          0.000          0.000          0.000          0.000          0.000          0.000          0.000          0.000          0.000          0.000          0.000          0.000          0.000          0.000          0.000          0.000         -1.091         -0.805         -0.228          0.000          0.000          0.000          0.000          0.000          0.000          0.000          0.000          0.000          0.000          0.000          0.000          0.000          0.000          0.000          0.000          0.000          0.000          0.000          0.000          0.000          0.000          0.000          0.000          0.000          0.000          0.000          0.000          0.000          0.000          0.000          0.000          0.000          0.000          0.000          0.000          0.000          0.000          0.000          0.000          0.000          0.000          0.000          0.000         -0.998          0.000          0.000         -0.359          0.000          0.000          0.000          0.000          0.000          0.000          0.000          0.000          0.000          0.000          0.000          0.000          0.000          0.000          0.000          0.000          0.000          0.000          0.000          0.000          0.000          0.000          0.000          0.000          0.000          0.000          0.000          0.000         -0.487          0.000         -0.770          0.000          0.000          0.000          0.000          0.000          0.000          0.000          0.000          0.000         -0.462         -0.076         -0.198         -0.532         -7.550
       4000.000          0.000          0.000          0.000          0.000          0.000          0.000          0.000          0.000          0.000          0.000          0.000          0.000          0.000          0.000          0.000          0.000          0.000          0.000          0.000          0.000          0.000          0.000          0.000          0.000          0.000          0.000          0.000          0.000          0.000          0.000          0.000          0.000          0.000          0.000          0.000          0.000          0.000          0.000          0.000          0.000          0.000          0.000          0.000          0.000          0.000          0.000          0.000          0.000          0.000          0.000          0.000          0.000          0.000          0.000         -0.228         -0.532         -0.871         -0.776          0.000          0.000          0.000          0.000          0.000          0.000          0.000          0.000          0.000          0.000          0.000          0.000          0.000          0.000          0.000          0.000          0.000          0.000          0.000          0.000          0.000          0.000          0.000          0.000          0.000          0.000          0.000          0.000          0.000          0.000          0.000          0.000          0.000          0.000          0.000          0.000          0.000          0.000          0.000          0.000          0.000          0.000          0.000          0.000         -0.855          0.000          0.000         -0.103          0.000          0.000          0.000          0.000          0.000          0.000          0.000          0.000          0.000          0.000          0.000          0.000          0.000          0.000          0.000          0.000          0.000          0.000          0.000          0.000          0.000          0.000          0.000          0.000          0.000          0.000          0.000          0.000         -0.578         -0.228         -0.693          0.000          0.000          0.000          0.000          0.000          0.000          0.000          0.000          0.000         -0.086          0.000         -0.230         -0.317         -7.000
       5000.000          0.000          0.000          0.000          0.000          0.000          0.000          0.000          0.000          0.000          0.000          0.000          0.000          0.000          0.000          0.000          0.000          0.000          0.000          0.000          0.000          0.000          0.000          0.000          0.000          0.000          0.000          0.000          0.000          0.000          0.000          0.000          0.000          0.000          0.000          0.000          0.000          0.000          0.000          0.000          0.000          0.000          0.000          0.000          0.000          0.000          0.000          0.000          0.000          0.000          0.000          0.000          0.000          0.000          0.000         -0.152         -1.148         -0.248         -0.154          0.000          0.000          0.000          0.000          0.000          0.000          0.000          0.000          0.000          0.000          0.000          0.000          0.000          0.000          0.000          0.000          0.000          0.000          0.000          0.000          0.000          0.000          0.000          0.000          0.000          0.000          0.000          0.000          0.000          0.000          0.000          0.000          0.000          0.000          0.000          0.000          0.000          0.000          0.000          0.000          0.000          0.000         -0.127          0.000         -0.699          0.000          0.000         -0.291          0.000          0.000          0.000          0.000          0.000          0.000          0.000          0.000          0.000          0.000          0.000          0.000          0.000          0.000          0.000          0.000          0.000          0.000          0.000          0.000          0.000          0.000          0.000          0.000          0.000          0.000          0.000          0.000         -0.051          0.000         -1.258          0.000          0.000          0.000          0.000          0.000          0.000          0.000          0.000          0.000         -0.051          0.000         -0.462          0.000         -5.370
       6000.000          0.000          0.000          0.000          0.000          0.000          0.000          0.000          0.000          0.000          0.000          0.000          0.000          0.000          0.000          0.000          0.000          0.000          0.000          0.000          0.000          0.000          0.000          0.000          0.000          0.000          0.000          0.000          0.000          0.000          0.000          0.000          0.000          0.000          0.000          0.000          0.000          0.000          0.000          0.000          0.000          0.000          0.000          0.000          0.000          0.000          0.000          0.000          0.000          0.000          0.000          0.000          0.000          0.000          0.000         -0.304         -0.500         -0.120         -0.701          0.000          0.000          0.000          0.000          0.000          0.000          0.000          0.000          0.000          0.000          0.000          0.000          0.000          0.000          0.000          0.000          0.000          0.000          0.000          0.000          0.000          0.000          0.000          0.000          0.000          0.000          0.000          0.000          0.000          0.000          0.000          0.000          0.000          0.000          0.000          0.000          0.000          0.000          0.000          0.000          0.000          0.000         -0.051          0.000         -0.366          0.000          0.000         -0.342          0.000          0.000          0.000          0.000          0.000          0.000          0.000          0.000          0.000          0.000          0.000          0.000          0.000          0.000          0.000          0.000          0.000          0.000          0.000          0.000          0.000          0.000          0.000          0.000          0.000          0.000          0.000          0.000         -0.506         -0.076         -0.462          0.000          0.000          0.000          0.000          0.000          0.000          0.000          0.000          0.000         -0.274          0.000         -0.152         -0.408         -5.934
       7000.000         -0.086          0.000          0.000          0.000         -0.069          0.000         -0.086          0.000          0.051         -0.844          0.000          0.000          0.000          0.000          0.000          0.000          0.152         -0.076          0.000          0.000          0.000          0.000          0.000          0.000          0.060          0.000          0.000          0.000          0.000          0.000          0.000          0.000         -0.181          0.163          0.000         -0.051         -0.746         -0.424         -0.882          0.000          0.051         -0.306          0.000          0.000          0.000          0.000         -0.060          0.000          0.000          0.000          0.000          0.000          0.000          0.000          0.000          0.000          0.086         -0.228          0.000          0.000          0.000          0.000          0.000          0.000          0.000          0.000         -0.086         -0.051         -0.152          0.000          0.000         -0.051          0.051          0.000          0.000          0.076          0.000          0.000          0.000          0.086          0.000          0.000          0.000          0.000          0.000          0.000          0.000          0.000          0.000          0.000          0.000          0.086          0.000          0.000         -0.086          0.000          0.000          0.000         -0.270          0.000          0.000          0.000          0.000          0.000          0.000          0.000          0.000          0.000          0.000          0.000          0.000          0.000          0.000          0.000         -0.076          0.000          0.000         -0.076          0.000          0.000          0.000         -0.051          0.000          0.000          0.000         -0.086          0.000         -0.257         -0.051          0.000          0.000          0.000         -0.060          0.000          0.000          0.000          0.000          0.000          0.000          0.000          0.000          0.000         -0.051          0.000          0.000          0.000          0.000         -0.076          0.000          0.000         -3.579
       8000.000          0.000          0.000          0.000          0.000          0.086          0.000          0.000          0.051          0.000          0.000         -0.051          0.000          0.000          0.000          0.000          0.000          0.000          0.076          0.000          0.000          0.000          0.000          0.000          0.000          0.000          0.000          0.000          0.000          0.000          0.000          0.000          0.000         -1.051          0.000          0.000          0.000          0.000          0.000          0.000          0.000         -0.086          0.000          0.000          0.000          0.000          0.000         -0.076          0.000         -0.076          0.000          0.000         -0.086          0.000          0.000         -0.975          0.000          0.000          0.000         -0.051          0.000          0.000          0.000          0.000          0.000          0.060          0.146          0.000          0.086          0.000          0.000          0.152          0.000         -0.060          0.000          0.000         -0.076          0.000          0.000          0.000          0.086          0.171          0.000          0.000          0.000          0.086          0.000         -0.103          0.000          0.000          0.000          0.000          0.000          0.076         -0.228          0.000          0.000          0.000          0.000          0.000          0.000          0.000          0.000          0.000          0.060          0.060          0.000          0.000          0.000          0.146         -0.181          0.060         -0.076          0.060         -0.076          0.000          0.000          0.000          0.076          0.000          0.000          0.086          0.000          0.000          0.152          0.051         -0.060         -0.076         -0.051         -0.051         -0.051          0.060         -0.060         -0.029         -0.060          0.000          0.000          0.000          0.000          0.000          0.000          0.000          0.000          0.000          0.076          0.000          0.000          0.000          0.136          0.000          0.137         -1.539
       9000.000          0.060          0.051         -0.076          0.000          0.000          0.000          0.000          0.000          0.000          0.000          0.000          0.000          0.000          0.000          0.000          0.000          0.000         -0.076          0.000          0.000          0.000          0.000          0.000          0.000          0.000          0.000          0.000          0.000          0.000          0.000          0.000          0.086         -0.722          0.120         -0.076         -0.076         -0.302         -0.829          0.000          0.000          0.000          0.000          0.000          0.000          0.000          0.000          0.000          0.000          0.000         -0.785         -0.222         -0.295         -0.265          0.000          0.000          0.000         -0.086          0.152          0.000          0.000          0.000          0.000          0.000          0.000         -0.017          0.000          0.000          0.086          0.076          0.000          0.000         -0.120          0.025          0.000          0.000         -0.152          0.000          0.000          0.000          0.000          0.086          0.000          0.000          0.000          0.000          0.000          0.146          0.076         -0.086          0.000          0.000          0.171          0.000          0.000          0.000         -0.076          0.000          0.051          0.000          0.060          0.000          0.000          0.000          0.000          0.000         -0.086          0.000          0.000          0.000          0.000          0.000          0.000         -0.179          0.152          0.000          0.000          0.000          0.000          0.000          0.076          0.000          0.000         -0.086         -0.146         -0.051         -0.120         -0.076          0.171         -0.051         -0.051          0.000          0.000          0.000          0.000          0.060          0.000          0.000          0.000          0.000          0.136          0.000          0.000          0.000          0.000          0.000          0.000          0.076          0.000          0.000          0.000         -4.061
      10000.000          0.000          0.000          0.000          0.000          0.000          0.000          0.000         -0.086          0.000          0.000         -0.086          0.000          0.000          0.000          0.000          0.000          0.000          0.000          0.000          0.000          0.000          0.000          0.000          0.000          0.000         -0.051          0.000          0.000          0.000          0.000          0.000          0.051         -0.991          0.000          0.000          0.000          0.000         -0.257          0.000         -0.051          0.000          0.000          0.000         -0.086          0.000          0.000          0.000          0.000          0.000         -0.614         -0.162         -0.060         -0.538          0.000         -0.428          0.000          0.000          0.000          0.000          0.000          0.000          0.000         -0.078          0.000          0.000          0.000          0.000          0.000          0.000          0.000          0.000          0.000          0.171         -0.076          0.000          0.000          0.000          0.000          0.000          0.000          0.000          0.000          0.000          0.000          0.000          0.000          0.000          0.000          0.000          0.000          0.000          0.000          0.000          0.000          0.000          0.000         -0.076          0.000          0.000          0.000          0.000          0.000          0.000          0.000         -0.051          0.000          0.000          0.000          0.000          0.000          0.000         -0.076          0.000          0.000          0.000          0.000          0.000          0.000          0.000          0.000          0.000          0.000          0.000          0.000          0.000          0.000          0.000          0.000          0.000          0.000          0.000          0.000          0.089          0.000          0.000          0.000          0.000          0.000          0.000          0.000          0.000          0.000          0.000          0.000          0.000          0.000          0.000          0.000          0.000          0.000         -4.019
      11000.000          0.000          0.000          0.000          0.000          0.000          0.000          0.000          0.000         -0.152         -0.076          0.000          0.000         -0.051          0.152          0.076          0.000          0.152          0.000          0.000          0.000          0.086         -0.086          0.000          0.000          0.000          0.000          0.076          0.000          0.000          0.000          0.000          0.000         -0.932          0.000          0.000         -0.051         -0.051          0.000          0.000          0.000          0.000          0.000          0.000          0.000          0.000          0.103          0.000          0.000          0.212         -0.469         -0.298         -0.060         -0.436          0.000         -0.582          0.000          0.000         -0.076          0.000          0.000          0.000          0.000          0.060          0.000          0.000         -0.060          0.103          0.000          0.000          0.000         -0.076          0.060         -0.060          0.000          0.000          0.000          0.000         -0.051          0.000          0.000          0.000         -0.060          0.000          0.000          0.000          0.000          0.060          0.000          0.000          0.026          0.000          0.257          0.000          0.051          0.000          0.000          0.000          0.000          0.000          0.000          0.000          0.000          0.000          0.000         -0.051          0.000          0.000          0.000          0.086          0.000          0.000         -0.076          0.120          0.000          0.000          0.000         -0.137          0.000          0.000          0.000          0.000          0.000          0.086          0.000          0.000          0.000          0.000          0.000          0.000          0.000          0.000          0.000         -0.257          0.000          0.000          0.000          0.000          0.000          0.000          0.000          0.000          0.000          0.000          0.000          0.000          0.000          0.000          0.000          0.051          0.000         -3.977