# Time	LEU-18	GLU-19	ASP-20	GLY-21	ALA-22	TYR-23	ARG-24	ILE-25	LYS-26	GLN-27	LYS-28	GLY-29	ILE-30	LEU-31	GLY-32	TYR-33	SER-34	GLN-35	ILE-36	GLY-37	ALA-38	GLY-39	VAL-40	TYR-41	LYS-42	GLU-43	GLY-44	THR-45	PHE-46	HIS-47	THR-48	MET-49	TRP-50	HIS-51	VAL-52	THR-53	ARG-54	GLY-55	ALA-56	VAL-57	LEU-58	MET-59	HIS-60	LYS-61	GLY-62	LYS-63	ARG-64	ILE-65	GLU-66	PRO-67	SER-68	TRP-69	ALA-70	ASP-71	VAL-72	LYS-73	LYS-74	ASP-75	LEU-76	ILE-77	SER-78	TYR-79	GLY-80	GLY-81	GLY-82	TRP-83	LYS-84	LEU-85	GLU-86	GLY-87	GLU-88	TRP-89	LYS-90	GLU-91	GLY-92	GLU-93	GLU-94	VAL-95	GLN-96	VAL-97	LEU-98	ALA-99	LEU-100	GLU-101	PRO-102	GLY-103	LYS-104	ASN-105	PRO-106	ARG-107	ALA-108	VAL-109	GLN-110	THR-111	LYS-112	PRO-113	GLY-114	LEU-115	PHE-116	LYS-117	THR-118	ASN-119	THR-120	GLY-121	THR-122	ILE-123	GLY-124	ALA-125	VAL-126	SER-127	LEU-128	ASP-129	PHE-130	SER-131	PRO-132	GLY-133	THR-134	SER-135	GLY-136	SER-137	PRO-138	ILE-139	VAL-140	ASP-141	LYS-142	LYS-143	GLY-144	LYS-145	VAL-146	VAL-147	GLY-148	LEU-149	TYR-150	GLY-151	ASN-152	GLY-153	VAL-154	VAL-155	THR-156	ARG-157	SER-158	GLY-159	ALA-160	TYR-161	VAL-162	SER-163	ALA-164	ILE-165	ALA-166	ASN-167	UNK1-168	
          0.000          0.114         -0.047         -0.086         -0.013          0.005          0.009          0.214         -0.001          0.200         -0.062          0.027         -0.011         -0.004         -0.002          0.002          0.025          0.005          0.034         -0.374          0.017         -0.073          0.002         -0.023          0.016          0.062         -0.060         -0.008          0.026         -0.008          0.037         -0.137         -0.388          0.296          5.543         -0.507         -0.051          2.508          0.116         -0.012         -0.043          0.023         -0.023         -0.006          0.028          0.005          0.063          0.126         -0.002         -0.145          0.073          0.014         -0.081          0.072         -0.425         -0.161          0.288          0.292          2.312         -0.050          0.017         -0.029         -0.079          0.007         -0.029          0.000         -0.007          0.177         -0.004         -0.017         -0.008          0.029         -0.005         -0.056          0.072         -0.016          0.162          0.119         -0.003          0.004         -0.019         -0.014         -0.012         -0.036          0.179          0.081          0.014         -0.054         -0.000         -0.002         -0.052         -0.009          0.011         -0.011          0.029         -0.119         -0.065          0.008         -0.016          0.009         -0.139         -0.180         -0.003         -0.047          0.023         -0.026         -0.077          0.048         -0.046         -0.070          0.102          1.149          0.495          1.849          0.189          2.434         -0.111          0.170          5.213         -0.101          0.049          0.037         -0.012          0.024          0.112         -0.042         -0.055         -0.012          0.006         -0.013          0.014         -0.051          0.128          1.217          5.683          0.226          8.830          0.258          0.137          0.209         -0.355          0.039         -0.005          0.194          1.120         -0.072          0.013         -0.016         -0.018          0.096          0.405         43.163
       1000.000         -0.072          0.080          0.085          0.025         -0.058          0.046         -0.353          0.006         -0.078         -0.022         -0.023          0.003          0.001          0.004          0.004         -0.018          0.000         -0.114          0.142         -0.201          0.157         -0.019          0.011          0.003         -0.151          0.108         -0.001         -0.033         -0.002         -0.096         -0.023         -1.000         -0.472          6.145         -0.451         -0.089          0.000         -0.056          0.048          0.005         -0.021          0.017          0.003         -0.059         -0.003         -0.043         -0.048          0.000          0.068         -0.038         -0.032          0.086         -0.099          0.826          0.195         -0.221         -0.121         23.058          0.038          0.073          0.004          0.069          0.001          0.040          0.004         -0.015         -0.153         -0.004          0.140          0.027          0.073         -0.013         -0.070          0.089         -0.015          0.127          0.088         -0.034          0.035         -0.049          0.058         -0.041         -0.003          0.213         -0.034         -0.009         -0.105          0.023         -0.032         -0.093         -0.019          0.020         -0.003          0.017         -0.092         -0.045          0.041         -0.018         -0.029         -0.141         -0.135         -0.091          0.024          0.077         -0.066         -0.039          0.091         -0.076          0.012          0.085          0.299          0.058         -0.121          0.070          0.085         -0.044          0.064         -1.700         -0.188          0.003          0.005          0.004          0.026          0.168         -0.090         -0.111         -0.007         -0.111         -0.046         -0.005         -0.122          0.051          0.480          7.581          0.518         11.626          0.028          1.055          0.150         -0.475         -0.049          0.054          0.243          4.837          0.058         -0.071          0.042          0.010          0.056          0.525         35.215
       2000.000         -0.036          0.033          0.072          0.023         -0.049          0.054         -0.255          0.004         -0.095          0.002         -0.008         -0.006         -0.003          0.001          0.007         -0.011          0.007         -0.114          0.170         -0.234          0.131          0.004          0.026          0.003         -0.073          0.055         -0.008         -0.016         -0.007         -0.046         -0.099         -1.177         -0.196          9.780         -0.786         -0.090         32.395         -0.034          0.041         -0.008         -0.018          0.009          0.003         -0.052         -0.002         -0.015         -0.014         -0.000          0.022         -0.004         -0.001          0.039         -0.017          0.314          0.131          0.066          0.090         14.407         -0.022          0.093         -0.012          0.019          0.000          0.014          0.009         -0.007         -0.060         -0.018          0.042         -0.009          0.009         -0.004         -0.006          0.001         -0.001          0.004         -0.005         -0.008          0.016         -0.015          0.048         -0.037          0.023          0.036         -0.044         -0.003         -0.041          0.009         -0.014          0.053         -0.002          0.002         -0.001         -0.000          0.010          0.009          0.012         -0.010         -0.006         -0.019         -0.086         -0.068         -0.009          0.047         -0.007         -0.019          0.028          0.012         -0.086          0.037          0.804         -0.371         -0.151          0.088         -0.136         -0.127         -0.155          5.318         -0.100          0.023         -0.007          0.017         -0.000          0.024          0.005         -0.014          0.001         -0.029         -0.020         -0.012         -0.035          0.027          0.870          6.816          0.372          2.150         -0.215         -0.488          0.170         -0.232         -0.022          0.134          0.049          7.902         -0.050          0.069         -0.004          0.011          0.008          0.025         59.279
       3000.000         -0.103          0.083          0.164          0.022         -0.068          0.076         -0.700          0.022         -0.177         -0.097         -0.067          0.001          0.001         -0.006          0.008         -0.047          0.023         -0.184          0.307         -0.260          0.200         -0.001          0.032          0.007         -0.250          0.140         -0.005         -0.034         -0.011         -0.079          0.013         -0.708         -0.200         10.356         -0.330         -0.074         -0.044         -0.092          0.023          0.011         -0.038          0.035         -0.072         -0.117         -0.007         -0.017         -0.069          0.016          0.095         -0.053         -0.014          0.083         -0.094          0.638          0.099         -0.043         -0.169          6.822          0.001          0.095          0.019          0.074          0.002          0.043          0.019         -0.019         -0.159         -0.050          0.126          0.014          0.163         -0.021         -0.116          0.091         -0.018          0.180          0.113         -0.031          0.011         -0.082          0.086         -0.075          0.025          0.714         -0.076         -0.021         -0.417          0.042         -0.042         -0.212         -0.023          0.030         -0.001         -0.011         -0.168         -0.048          0.044         -0.008         -0.011         -0.089          0.010          0.012          0.018          0.011         -0.025         -0.018          0.054         -0.066         -0.009         -0.007          0.542          0.617          0.040          0.199         -0.248         -0.323         -0.259         -0.145         -0.200         -0.067          0.034         -0.002          0.028          0.230         -0.123         -0.153         -0.010         -0.104         -0.051         -0.012         -0.103          0.015          0.405          7.344          0.269          1.956         -0.042         -0.086         -0.000         -0.109         -0.019          0.010          0.031          8.544         -0.146          0.003          0.128          0.031          0.082          0.354         23.562
       4000.000         -0.029          0.012          0.035          0.005          0.001         -0.010          0.137         -0.021         -0.003         -0.005         -0.003          0.004          0.003         -0.001         -0.002         -0.001          0.004          0.148         -0.008          0.063          0.055         -0.029          0.006          0.004         -0.077          0.060          0.001         -0.015          0.005         -0.047          0.046         -0.360         -0.195          5.179         -0.064         -0.010         -2.508         -0.030          0.020          0.001         -0.006          0.006         -0.012         -0.004         -0.001         -0.019         -0.037          0.005          0.039         -0.025         -0.002          0.037         -0.051          0.421          0.046         -0.059         -0.176          3.885          0.048          0.023          0.004          0.029         -0.006          0.012          0.009         -0.002         -0.066         -0.009          0.032          0.010          0.045         -0.004         -0.027          0.008         -0.005          0.042          0.030         -0.006          0.005          0.017         -0.052          0.076         -0.041         -0.246          0.068         -0.001          0.057         -0.013          0.003          0.005          0.003          0.008         -0.007          0.007         -0.033         -0.017          0.016         -0.009          0.001         -0.040         -0.027          0.025          0.017          0.014         -0.015         -0.014          0.040         -0.048          0.079          0.046          0.699         -0.141         -0.080         -0.633          1.477          3.012          0.966          4.503          0.060          0.227         -0.066         -0.009          0.003          0.062         -0.018         -0.045         -0.004         -0.018         -0.002          0.010         -0.063          0.118          1.019          4.608          0.076          0.486         -0.020         -0.060          0.036         -0.078          0.001         -0.107          0.470          4.936          0.078          0.101         -0.001          0.019          0.057          0.360         21.583
       5000.000         -0.061          0.064          0.155          0.033         -0.074          0.065         -0.705          0.027         -0.311          0.041         -0.037          0.017          0.010         -0.004          0.001         -0.052          0.139         -0.079          0.634         -0.229          0.258         -0.010          0.058          0.014         -0.143          0.089         -0.000         -0.040         -0.001         -0.124         -0.057         -0.630         -0.157         11.602         -0.001         -0.055         -0.502         -0.284          0.131          0.103         -0.037          0.011         -0.076         -0.012         -0.008         -0.048         -0.176          0.048          0.136         -0.106         -0.002          0.137         -0.140          0.959          0.025         -0.182         -0.427          8.343          0.069          0.059          0.008          0.129          0.012          0.052          0.023          0.004         -0.182          0.002          0.111          0.028          0.020         -0.005         -0.007         -0.005          0.001         -0.021         -0.047         -0.009          0.013         -0.035          0.104         -0.052          0.031          1.213         -0.023         -0.004         -0.489          0.021         -0.019         -0.035         -0.009         -0.003         -0.001         -0.012          0.065          0.009          0.001         -0.001          0.002         -0.001          0.001          0.001         -0.005         -0.003          0.005         -0.004          0.011          0.009         -0.033         -0.045          2.151          0.698          5.537          0.678          1.779          2.254          1.966          4.041         -0.006          0.027         -0.009          0.024         -0.000         -0.009          0.039          0.010          0.005         -0.018         -0.011          0.007         -0.049         -0.176          6.804          4.351          0.172          0.909         -0.007          0.023         -0.001          0.027          0.018          0.005         -0.005          0.166          0.048          0.526          0.010          0.036          0.028          0.015         39.079
       6000.000         -0.140          0.097          0.189          0.030         -0.031          0.033         -0.219          0.178         -0.409         -0.246         -0.018          0.045          0.033          0.010          0.007         -0.103          0.368          0.462          4.461          0.658          0.374         -0.037          0.035          0.011         -0.139          0.123         -0.005         -0.049          0.021         -0.151          0.212         -0.737         -0.015         22.406          0.683         -0.001          5.206         -0.233          0.100          0.051         -0.049          0.045         -0.134         -0.066         -0.016         -0.063         -0.223          0.023          0.219         -0.124         -0.026          0.159         -0.169          1.101          0.265         -0.117         -0.684          9.594          0.080          0.068          0.035          0.171          0.025          0.076          0.014          0.006         -0.245         -0.008          0.154          0.020          0.071          0.005         -0.081          0.012         -0.007          0.041          0.012         -0.011          0.018          0.077         -0.087          0.280          0.115         -0.599          0.081         -0.014          0.277         -0.055          0.031          0.215          0.022          0.017         -0.008          0.003         -0.017         -0.010          0.017         -0.009         -0.007         -0.014         -0.025         -0.031         -0.022          0.019         -0.001         -0.011          0.044         -0.037          0.053         -0.287          1.864          0.159          3.578         -0.541          2.483          3.875          7.794          2.281         -0.001          0.764         -0.185          0.017         -0.008          0.065         -0.008         -0.049          0.001         -0.037         -0.003          0.021         -0.115          0.149          6.885          4.625          0.153          0.118          0.096         -0.002         -0.025         -0.052         -0.002          0.025         -0.072         -0.072          0.162         -0.145          0.037          0.021          0.053          0.252         40.002
       7000.000         -0.142          0.146          0.246          0.051         -0.102          0.140         -1.389          0.084         -0.366         -0.045         -0.119          0.035          0.022          0.002          0.024         -0.159          0.142         -0.258          3.796          0.217          0.387          0.016          0.046          0.026         -0.271          0.201          0.003         -0.047         -0.036         -0.109          0.071          0.116          0.195         20.151          0.714          0.284         17.651         -0.264          0.064          0.064         -0.032          0.034         -0.006         -0.094         -0.007         -0.131         -0.161          0.049          0.164         -0.116         -0.009          0.139         -0.154          0.904          0.185         -0.189         -0.247          6.091         -0.021          0.035          0.042          0.157         -0.021          0.045          0.044         -0.001         -0.275         -0.019          0.118          0.023          0.116         -0.014         -0.050          0.025         -0.005          0.092          0.108         -0.024         -0.007         -0.030          0.069         -0.075          0.128          1.050         -0.193         -0.030         -0.491          0.052         -0.053         -0.536         -0.018          0.009         -0.013          0.003         -0.045         -0.020          0.012         -0.002          0.001         -0.008         -0.045         -0.055         -0.021         -0.005         -0.001         -0.006          0.010          0.002         -0.043          0.016          0.458          0.419          0.105         -0.054         -0.958         -0.106         -0.092          4.341          0.094         -0.072         -0.005          0.011          0.007          0.167         -0.123         -0.108         -0.006         -0.042         -0.049         -0.015         -0.036         -0.097          0.283          5.632         -0.200          1.408         -0.171         -0.126         -0.004         -0.036         -0.006          0.174         -0.089          2.115         -0.266         -0.177          0.079          0.002          0.055          0.260         34.301
       8000.000         -0.132          0.332          0.230          0.030         -0.130          0.135         -1.519          0.138         -0.560         -0.328         -0.096          0.009          0.009         -0.008          0.029         -0.122          0.022         -0.529          2.446         -0.125          0.305          0.016          0.033          0.019         -0.338          0.248          0.015         -0.058         -0.046         -0.086          0.009         -0.650          0.117         13.454          0.868          0.202         -2.219         -0.302          0.145          0.129         -0.066          0.068         -0.104         -0.208         -0.015         -0.024         -0.292          0.064          0.200         -0.147         -0.058          0.179         -0.190          1.353          0.260         -0.153         -0.670         10.490          0.040          0.101          0.056          0.184          0.010          0.087          0.041         -0.031         -0.275         -0.070          0.180          0.007          0.105         -0.036         -0.075          0.021         -0.005          0.107          0.126         -0.033          0.027         -0.060          0.095         -0.104          0.118          1.046         -0.159         -0.020         -0.549          0.077         -0.075         -0.577         -0.022          0.014          0.000         -0.006         -0.015         -0.004          0.021          0.002         -0.002          0.013          0.006         -0.012          0.002         -0.004          0.011         -0.015          0.019          0.044         -0.190          0.139          0.316          0.131         -0.091          0.173         -0.661         -0.829         -0.334          2.238          0.006         -0.068          0.011          0.015         -0.005          0.221         -0.134         -0.141         -0.001         -0.110         -0.048         -0.020         -0.100         -0.037          0.787          5.655          0.221          4.630         -0.127         -0.122          0.064          0.037          0.002          0.126          0.050          1.880         -0.170          0.039          0.149          0.027          0.059          0.108         31.721
       9000.000         -0.094          0.230          0.188          0.059         -0.110          0.092         -0.936          0.056         -0.440         -0.172         -0.076          0.029          0.014          0.011          0.015         -0.062          0.060         -0.167          0.875         -0.188          0.324         -0.028          0.046         -0.000         -0.315          0.120         -0.004         -0.056         -0.014         -0.113          0.039         -0.620         -0.032         15.381          0.010         -0.062          4.660         -0.184          0.119          0.057         -0.058          0.057         -0.044         -0.080         -0.008         -0.013         -0.116          0.034          0.145         -0.111         -0.002          0.161         -0.171          0.958          0.219         -0.520         -0.261         17.567          0.006          0.091          0.035          0.188          0.019          0.075          0.027         -0.020         -0.209         -0.025          0.119          0.022          0.113         -0.012         -0.076          0.039         -0.012          0.129          0.145         -0.043         -0.010         -0.064          0.105         -0.062          0.031          0.627         -0.051         -0.028         -0.148          0.017         -0.062         -0.422         -0.028          0.025         -0.019         -0.026         -0.087         -0.064          0.040         -0.010          0.003         -0.049         -0.002         -0.056          0.037          0.034         -0.007         -0.015          0.080         -0.126          0.106          0.043          0.490          0.521          0.231         -0.461          1.633          1.251          1.794          0.328         -0.080         -0.039         -0.005         -0.035          0.019          0.210         -0.140         -0.149         -0.021         -0.052         -0.047         -0.014         -0.044          0.028          4.304          6.656         -0.175          1.777         -0.186          0.075         -0.055         -0.040         -0.000          0.007         -0.161          2.980          0.051          1.232          0.258          0.026          0.081          0.691         34.732
      10000.000          0.045         -0.066         -0.072         -0.003         -0.017          0.055         -0.500          0.257          0.084          0.545          0.032         -0.023         -0.005         -0.004         -0.021          0.058         -0.312          3.356          6.231          0.235          0.192          0.033          0.006         -0.004          0.097         -0.077         -0.014          0.013          0.002          0.005         -0.201         -1.274         -0.991          8.318         -2.150         -0.014         36.424          0.053          0.065         -0.047          0.016         -0.022          0.042          0.049          0.004          0.011          0.101         -0.024         -0.117          0.061         -0.011         -0.037          0.025         -0.121          0.059          0.040          0.206         11.177         -0.008          0.071         -0.030         -0.047         -0.011         -0.028         -0.006         -0.001          0.087          0.004         -0.041          0.009         -0.020          0.008          0.020         -0.031          0.004         -0.064         -0.050          0.003          0.003          0.000          0.029         -0.021          0.085          0.438         -0.320          0.002         -0.172          0.033         -0.004         -0.155          0.006         -0.008         -0.004         -0.015          0.021          0.029         -0.021          0.005         -0.015          0.046          0.010         -0.002          0.002         -0.027          0.015          0.004         -0.021          0.055         -0.108          0.098          0.713         -0.348          0.100         -0.370          4.070          3.702          0.475          1.721         -0.047         -0.025          0.025          0.007         -0.002         -0.073          0.052          0.050          0.004          0.024          0.004         -0.006          0.009          0.071          0.550          6.843          0.280          3.301         -0.246         -0.088          0.057          0.075          0.005          0.025          0.020          1.388         -0.338         -0.085          0.073          0.013         -0.015         -0.151         62.140
      11000.000          0.014         -0.024         -0.015          0.009         -0.046          0.080         -0.582          0.281         -0.215          0.275          0.007         -0.025         -0.005          0.009          0.003         -0.006         -0.440          3.226          4.505          0.074          0.160          0.042          0.028         -0.000          0.012         -0.015         -0.007          0.007          0.003         -0.010         -0.004         -0.880         -0.542         12.232         -1.132         -0.110         27.591          0.018          0.029         -0.066          0.001         -0.011         -0.003          0.012          0.003          0.010          0.054         -0.006         -0.079          0.034         -0.019          0.000         -0.010          0.117          0.140          0.071          0.132         11.058          0.010          0.097         -0.013          0.002          0.006          0.002          0.009         -0.002          0.026         -0.007          0.000          0.007          0.007         -0.001         -0.005          0.010         -0.003          0.013          0.002         -0.008          0.007         -0.017          0.036         -0.014          0.064          0.073         -0.276          0.003         -0.119          0.014         -0.008         -0.044         -0.003          0.002         -0.001          0.005         -0.000         -0.005          0.004         -0.003          0.001         -0.004         -0.011         -0.024          0.007          0.010          0.000         -0.005          0.012         -0.007          0.001         -0.023          0.564         -0.020         -0.007         -0.535          4.503          4.411          1.740          4.378         -0.047          0.057         -0.004         -0.005          0.006          0.014         -0.004         -0.010         -0.001         -0.001         -0.015         -0.008         -0.021         -0.004          2.078          6.245         -0.220          2.890         -0.158         -0.047          0.009         -0.034          0.003          0.025         -0.022          0.804         -0.162          0.022          0.080          0.019         -0.002          0.145         52.151