# Time	LEU-18	GLU-19	ASP-20	GLY-21	ALA-22	TYR-23	ARG-24	ILE-25	LYS-26	GLN-27	LYS-28	GLY-29	ILE-30	LEU-31	GLY-32	TYR-33	SER-34	GLN-35	ILE-36	GLY-37	ALA-38	GLY-39	VAL-40	TYR-41	LYS-42	GLU-43	GLY-44	THR-45	PHE-46	HIS-47	THR-48	MET-49	TRP-50	HIS-51	VAL-52	THR-53	ARG-54	GLY-55	ALA-56	VAL-57	LEU-58	MET-59	HIS-60	LYS-61	GLY-62	LYS-63	ARG-64	ILE-65	GLU-66	PRO-67	SER-68	TRP-69	ALA-70	ASP-71	VAL-72	LYS-73	LYS-74	ASP-75	LEU-76	ILE-77	SER-78	TYR-79	GLY-80	GLY-81	GLY-82	TRP-83	LYS-84	LEU-85	GLU-86	GLY-87	GLU-88	TRP-89	LYS-90	GLU-91	GLY-92	GLU-93	GLU-94	VAL-95	GLN-96	VAL-97	LEU-98	ALA-99	LEU-100	GLU-101	PRO-102	GLY-103	LYS-104	ASN-105	PRO-106	ARG-107	ALA-108	VAL-109	GLN-110	THR-111	LYS-112	PRO-113	GLY-114	LEU-115	PHE-116	LYS-117	THR-118	ASN-119	THR-120	GLY-121	THR-122	ILE-123	GLY-124	ALA-125	VAL-126	SER-127	LEU-128	ASP-129	PHE-130	SER-131	PRO-132	GLY-133	THR-134	SER-135	GLY-136	SER-137	PRO-138	ILE-139	VAL-140	ASP-141	LYS-142	LYS-143	GLY-144	LYS-145	VAL-146	VAL-147	GLY-148	LEU-149	TYR-150	GLY-151	ASN-152	GLY-153	VAL-154	VAL-155	THR-156	ARG-157	SER-158	GLY-159	ALA-160	TYR-161	VAL-162	SER-163	ALA-164	ILE-165	ALA-166	ASN-167	UNK1-168	
          0.000         -0.507          0.287          0.228          0.042         -0.001         -0.027         -0.448          0.012         -0.808          0.164         -0.792         -0.019         -0.029         -0.038          0.051         -0.042         -0.021         -0.080          0.457         -0.160          0.172         -0.020          0.049         -0.052         -0.049          0.154          0.022         -0.062          0.004         -0.073          0.123         -0.354         -0.615         -3.910          0.093          0.123         -6.213         -0.122         -0.083          0.101         -0.037          0.039         -0.009         -0.456         -0.021         -0.498         -0.925          0.033          1.031         -0.085          0.004          0.086         -0.090          0.544          0.171         -0.341         -0.110          4.900          0.039         -0.048          0.050          0.062         -0.033          0.039          0.004          0.007         -0.439         -0.005         -0.058          0.016         -0.392         -0.022          0.671         -0.819          0.040         -0.706         -0.766         -0.019          0.010          0.030          0.017          0.102          0.039         -0.847         -0.193         -0.052          0.388         -0.000         -0.005          0.374          0.009         -0.020          0.015         -0.043          1.009          0.109         -0.008          0.006         -0.023          1.037          0.273          0.135          0.024         -0.066          0.051          0.055         -0.081          0.237         -0.484         -0.369         -6.238         -2.065         -2.171         -2.434         -6.727         -0.182          0.120         -5.010          0.172         -0.124         -0.137          0.009         -0.063         -0.449          0.489          0.386          0.036          0.095          0.021         -0.005          0.063         -0.353         -2.318         -5.943         -1.697         -3.661         -2.885         -0.962         -0.445          1.417         -0.114         -0.027         -0.607         -2.536         -1.641         -0.365         -0.128          0.026         -0.160         -1.132        -56.610
       1000.000          0.249         -0.288         -0.443         -0.018          0.049         -0.045          0.545         -0.045          0.032         -0.051         -0.433          0.015         -0.007         -0.005          0.034         -0.009          0.043          0.116         -0.338          0.149         -0.123         -0.010          0.011         -0.035          0.671         -0.538          0.013          0.023         -0.013          0.051         -0.017          0.388          0.038         -8.417          0.149          0.138         -4.658          0.043         -0.113          0.034          0.015         -0.040          0.016          0.219          0.009          0.086         -0.141          0.031          0.132          0.006          0.041         -0.060          0.073         -1.564         -0.706          0.443          1.017        -11.776         -0.061         -0.136          0.042         -0.088         -0.029         -0.026          0.014         -0.005          0.469         -0.018         -0.717         -0.045         -0.964         -0.026          0.959         -1.124          0.032         -0.890         -0.771          0.042         -0.042          0.057         -0.067          0.065          0.003         -0.710          0.013          0.003          0.470         -0.029          0.038          0.623          0.029         -0.041          0.007         -0.039          0.883          0.080         -0.075          0.033          0.008          1.283          0.320          0.272         -0.020         -0.162          0.111          0.053         -0.169          0.146         -0.207         -0.101         -3.051         -1.236         -0.015         -0.246         -0.241          0.099          0.031          0.172          0.124         -0.042         -0.026         -0.008         -0.050         -0.875          0.726          0.821          0.009          0.713          0.041         -0.026          0.135         -0.181         -0.525         -4.138         -2.024         -9.589         -0.765         -2.527         -0.266          1.827          0.078          0.015         -0.673         -7.354         -0.714         -0.250          0.022         -0.009         -0.171         -2.366        -58.071
       2000.000         -0.117          0.035         -0.042          0.007          0.015         -0.022         -0.182         -0.009         -0.428         -0.067         -0.796         -0.010         -0.025         -0.004          0.038         -0.021         -0.059          0.006         -0.140          0.094         -0.043         -0.006          0.005         -0.036          0.209         -0.126          0.005          0.003         -0.002          0.018          0.003          0.204          0.035         -8.210          0.315          0.156        -19.297          0.008         -0.126          0.038         -0.008          0.006          0.029         -0.191         -0.008         -0.235         -0.437          0.035          0.474         -0.043         -0.009         -0.019          0.006         -0.945         -0.659          0.218          0.680         -8.194         -0.047         -0.127          0.007         -0.025          0.002          0.017          0.015          0.019          0.101          0.000         -0.258         -0.027         -0.470         -0.031          0.452         -0.675          0.019         -0.389         -0.293          0.005          0.000          0.001         -0.016         -0.006         -0.002          0.092         -0.029         -0.009         -0.119          0.014          0.001          0.018          0.008         -0.011          0.008         -0.018          0.445          0.006         -0.027          0.026         -0.044          0.996          0.149          0.422         -0.061         -0.164          0.004          0.039         -0.085         -0.016          0.026          0.009         -2.866          0.035          0.029         -0.097         -0.185          0.022          0.000         -2.084         -0.012         -0.063          0.017         -0.034         -0.008         -0.354          0.289          0.389          0.008          0.274         -0.012         -0.051          0.072         -0.132         -0.831         -4.016         -0.826         -2.708         -0.197         -0.013         -0.285          1.854          0.018         -0.154         -0.237        -12.971         -0.466         -0.141          0.086         -0.028         -0.096         -1.195        -64.887
       3000.000          0.131         -0.150         -0.331          0.009          0.044         -0.059          0.283         -0.022         -0.316         -0.052         -0.587         -0.067         -0.059         -0.042          0.049         -0.043          0.083          0.158         -0.370          0.175         -0.103          0.014         -0.003         -0.002          0.553         -0.420          0.010          0.017         -0.009          0.050         -0.092          0.187          0.459         -7.044          0.157          0.111         -1.053          0.060         -0.124          0.044         -0.014         -0.038          0.018          0.060         -0.002         -0.085         -0.309          0.033          0.191          0.002          0.012         -0.032          0.046         -1.319         -0.359          1.214          0.982         -7.004         -0.053         -0.107         -0.028         -0.066          0.002         -0.011         -0.000          0.020          0.391          0.022         -0.526         -0.042         -0.938         -0.023          0.811         -0.855          0.030         -0.707         -0.597          0.019          0.001          0.051         -0.058          0.050          0.013         -0.671         -0.040         -0.003          0.403         -0.018          0.024          0.529          0.024         -0.025         -0.001          0.023          0.805          0.054         -0.078          0.020          0.003          0.883          0.086          0.192         -0.005         -0.031          0.056          0.012         -0.098          0.112         -0.215          0.034         -2.616         -1.355         -0.251         -0.293         -0.477         -0.021          0.085         -0.641          0.111         -0.032         -0.046          0.002         -0.034         -0.682          0.579          0.648          0.011          0.527          0.022         -0.033          0.101         -0.150         -0.627         -2.563         -1.198         -3.230         -0.453         -0.212         -0.083          1.175          0.013         -0.034         -0.245         -6.512         -0.530         -0.300         -0.091         -0.056         -0.140         -1.538        -36.653
       4000.000          0.409         -0.266         -0.321         -0.030          0.014         -0.010          0.168         -0.024          0.446          0.079          0.481          0.004         -0.004         -0.008         -0.041          0.020         -0.130         -0.151         -0.161         -0.108         -0.129          0.027         -0.038         -0.008          0.365         -0.375         -0.014          0.039         -0.020          0.066         -0.095         -0.015          0.220         -6.826         -0.407         -0.104          5.999          0.031          0.004         -0.039          0.003         -0.031          0.022          0.348          0.007          0.547          0.806         -0.030         -0.718          0.045         -0.040         -0.036          0.068         -1.570         -0.198          1.257          1.070         -5.640         -0.162         -0.017         -0.014         -0.040          0.021         -0.028         -0.004         -0.002          0.499         -0.010         -0.353         -0.045         -0.328         -0.030          0.234          0.026          0.023          0.060          0.333          0.036         -0.048          0.008         -0.025         -0.029         -0.039          0.792          0.023          0.029         -0.738          0.052          0.017         -0.479          0.010         -0.044          0.073         -0.075         -0.292         -0.011         -0.121          0.048         -0.131         -0.464          0.136         -0.110         -0.036          0.014          0.001          0.078         -0.084         -0.006         -0.055         -0.374         -3.841          2.735          0.064         -0.532         -4.155         -2.212         -0.695          1.165         -0.010         -0.083          0.047         -0.049          0.016         -0.025         -0.209          0.011         -0.015          0.191         -0.012         -0.036          0.054         -0.022         -1.148         -2.437         -0.630         -1.976         -0.226         -0.364         -0.112         -0.353          0.248          0.164         -1.315         -8.826         -0.612         -0.295         -0.029         -0.097         -0.089         -0.891        -33.328
       5000.000          0.598         -0.606         -0.559         -0.031          0.042         -0.039          1.904         -0.186          1.829         -0.108          1.094          0.028          0.018         -0.060         -0.031          0.050         -0.285         -0.394         -1.506         -0.092         -0.334         -0.045         -0.046         -0.017          0.404         -0.421         -0.003          0.028          0.020          0.061         -0.010         -0.201         -0.179        -15.044         -0.582         -0.073          4.288          0.155         -0.085         -0.194          0.067         -0.021          0.025          0.858          0.040          0.734          1.143         -0.063         -0.900          0.087          0.004         -0.114          0.095         -0.797         -0.013          0.189          0.440         -5.584         -0.100         -0.025          0.002         -0.102         -0.010         -0.054         -0.027         -0.010          0.536         -0.001         -0.346         -0.015          0.020          0.015         -0.092          0.147         -0.008          0.102          0.130          0.002         -0.025         -0.152          0.081         -0.061         -0.274         -1.482          0.158          0.045          1.151         -0.075          0.017          0.379         -0.035          0.023          0.016          0.018         -0.435         -0.045         -0.002          0.011         -0.060         -0.575         -0.092         -0.144          0.008          0.059         -0.064          0.012          0.016         -0.121         -0.020         -0.072         -4.931         -0.502         -3.212         -0.360         -2.460          0.273         -1.279          0.803         -0.449         -0.219          0.074         -0.095          0.021         -0.015         -0.054         -0.017         -0.023          0.221         -0.007         -0.019          0.021         -0.002         -9.055         -2.855         -1.162         -1.265         -0.100         -0.327          0.204         -0.870         -0.010          0.246         -0.137         -0.966         -0.375         -0.754         -0.090         -0.073         -0.007          0.202        -45.619
       6000.000          0.509         -0.524         -0.448         -0.037          0.031         -0.020          1.445         -0.336          1.746          0.217          0.929          0.108          0.108          0.102         -0.117          0.086         -0.437         -0.701         -3.921         -0.540         -0.335         -0.052         -0.030          0.019          0.317         -0.303          0.003          0.021          0.000          0.036         -0.130         -0.309         -0.516        -13.348         -2.314         -0.222         -4.119          0.140         -0.039         -0.112          0.063         -0.049          0.089          0.687          0.040          0.499          0.732         -0.040         -0.593          0.058          0.016         -0.104          0.064         -0.238         -0.113         -0.363         -0.033         -4.113         -0.033         -0.049          0.005         -0.078         -0.011         -0.049         -0.020         -0.007          0.394          0.012         -0.212         -0.005          0.036          0.007         -0.136          0.074         -0.003          0.078          0.089          0.008         -0.017         -0.089          0.004         -0.144         -0.259          0.047          0.101          0.030          0.296         -0.042          0.003          0.075         -0.019          0.005          0.005          0.011         -0.157         -0.036          0.007         -0.003         -0.033         -0.388         -0.064         -0.128         -0.022          0.027         -0.009          0.003          0.004         -0.065          0.012          0.082         -5.715          0.073         -0.545          0.669         -2.621         -0.227         -2.912         -2.283         -0.371         -0.288          0.065         -0.054          0.020         -0.013         -0.054         -0.025         -0.016          0.129         -0.005         -0.006         -0.002         -0.036         -4.377         -2.917         -0.390         -0.532         -0.237         -0.193          0.078         -0.548          0.048          0.101          0.049         -0.636         -0.304         -0.204         -0.040         -0.040         -0.012          0.257        -51.263
       7000.000          0.596         -0.704         -0.649          0.005          0.056         -0.069          2.560         -0.267          1.405         -0.110          0.609          0.090          0.035         -0.060         -0.056          0.067          0.009         -0.297         -3.610         -0.276         -0.260         -0.103         -0.014         -0.003          0.520         -0.426          0.015         -0.001          0.061         -0.002          0.010         -0.714         -0.679        -15.322         -2.958         -0.364         -9.841          0.133         -0.018         -0.086          0.048         -0.057          0.080          0.767          0.029          0.418          0.242         -0.020         -0.179          0.047          0.032         -0.093          0.029          0.544         -0.013         -1.446         -0.261         -0.056          0.065         -0.067          0.038         -0.095         -0.003         -0.016         -0.043         -0.004          0.378          0.019         -0.257         -0.003         -0.142          0.043          0.113         -0.262         -0.015         -0.401         -0.667          0.005          0.062          0.003         -0.070          0.113         -0.173         -3.059          0.105          0.010          2.222         -0.113          0.051          1.918          0.013          0.020         -0.062          0.054          0.456          0.019          0.001         -0.032          0.005         -0.063         -0.122         -0.214         -0.063         -0.011          0.006         -0.038          0.026         -0.023         -0.007         -0.069         -3.598         -2.273         -0.641         -0.042          0.333          0.004          0.476         -1.662         -0.113          0.110         -0.098         -0.002         -0.015         -0.547          0.682          0.433         -0.000          0.402          0.048          0.037         -0.026          0.108         -0.204         -1.331         -0.364         -2.110         -0.509         -0.293         -0.016         -0.363         -0.021         -0.099          0.232         -8.739         -0.140         -0.290         -0.176         -0.009         -0.018          0.108        -51.680
       8000.000          0.687         -0.887         -0.912         -0.009          0.097         -0.098          2.006         -0.198          1.099          0.154          0.267         -0.087         -0.100         -0.050          0.005          0.042          0.023          0.351         -2.985          0.064         -0.260         -0.045         -0.019         -0.027          0.898         -0.779         -0.004          0.030          0.028          0.048         -0.031          0.134         -0.271         -9.051         -3.042         -0.423         -4.123          0.174         -0.125         -0.090          0.045         -0.072          0.052          0.821          0.028          0.398          0.549         -0.040         -0.577          0.078          0.036         -0.119          0.113         -1.506         -0.271          0.560          1.082         -7.740         -0.044         -0.127         -0.021         -0.144         -0.015         -0.059         -0.028          0.027          0.792          0.048         -0.761         -0.033         -0.723          0.035          0.609         -0.412          0.008         -0.613         -0.667          0.036         -0.013          0.048         -0.089          0.130         -0.111         -2.113          0.094          0.007          1.512         -0.097          0.072          1.442          0.025         -0.017         -0.037          0.039          0.503          0.022         -0.038          0.002         -0.029          0.084         -0.016         -0.002          0.000          0.018         -0.013          0.009         -0.048         -0.014          0.058         -0.102         -2.476         -1.336         -0.264         -0.358          0.474          0.801          0.662         -1.597          0.011          0.085         -0.056         -0.018          0.004         -0.784          0.701          0.664         -0.011          0.704          0.037          0.001          0.063         -0.014         -0.533         -3.513         -0.802         -5.324         -0.667         -0.315          0.037         -0.130         -0.010         -0.146         -0.005         -7.134         -0.167         -0.418         -0.229         -0.052         -0.093         -0.736        -47.777
       9000.000          0.302         -0.538         -0.544          0.006          0.037         -0.027          2.117         -0.241          1.675          0.107          0.992          0.108          0.058         -0.100         -0.074          0.044          0.045         -0.252         -2.391         -0.259         -0.181         -0.083         -0.013          0.014          0.217         -0.162          0.013         -0.016          0.047         -0.018          0.032         -0.987         -1.070        -16.223         -1.457         -0.166         -6.603          0.044         -0.007         -0.114          0.062         -0.035          0.072          0.622          0.031          0.350          0.416         -0.036         -0.149          0.020          0.025         -0.064         -0.014          1.486          0.211         -5.138         -1.116          2.013          0.025         -0.067          0.070         -0.039          0.014         -0.012         -0.044         -0.005          0.059          0.025          0.086          0.034          0.273          0.037         -0.145          0.184         -0.003         -0.076         -0.386         -0.009         -0.002         -0.040         -0.045          0.032         -0.146         -2.350          0.116          0.046          2.018         -0.005          0.044          1.517         -0.012          0.029          0.001          0.044          0.277         -0.005          0.023         -0.035         -0.000         -0.563         -0.115         -0.455          0.036          0.077         -0.008         -0.080          0.077         -0.039         -0.067          0.061         -2.953         -1.452         -0.597          0.035         -1.921          0.119         -0.483          0.710         -0.240          0.015         -0.053         -0.022         -0.003         -0.210          0.367          0.106          0.011          0.121          0.027          0.042         -0.073          0.055         -1.373         -1.504         -2.125         -2.882         -1.173         -0.441          0.167         -1.605          0.009         -0.230          0.336         -8.215         -0.824         -1.057         -0.230         -0.039          0.042          1.274        -52.731
      10000.000         -0.626          0.749          0.622          0.080         -0.067          0.027         -0.172         -0.186         -1.096         -1.493         -0.954          0.166          0.091          0.008          0.134         -0.380          0.179         -2.477         -6.620         -0.707          0.110         -0.057          0.045         -0.017         -0.595          0.621          0.034         -0.060          0.004         -0.086          0.080         -0.308          0.543        -10.346         -0.790          0.167        -24.391         -0.232         -0.147          0.167         -0.091          0.050         -0.144         -0.778         -0.032         -0.747         -1.310          0.083          1.308         -0.137          0.067          0.108         -0.111          0.940         -0.077         -0.242         -0.476          1.206         -0.108          0.004          0.045          0.075          0.034          0.086          0.011         -0.021         -0.737         -0.021          0.467          0.031          0.252         -0.010         -0.190         -0.049         -0.003          0.078         -0.112         -0.038          0.005         -0.065          0.034         -0.013         -0.072         -1.465         -0.227         -0.094          1.244         -0.082         -0.046          0.738         -0.037          0.036         -0.015          0.024          0.200         -0.024          0.020         -0.024          0.028          0.347          0.073          0.188         -0.015         -0.028          0.016         -0.042          0.025         -0.047          0.011          0.098         -4.143         -1.285         -0.719          0.169         -4.765         -5.023         -0.707         -2.949         -0.118         -0.085         -0.060          0.002         -0.018          0.164          0.043         -0.144          0.016         -0.278         -0.025         -0.008         -0.046         -0.101         -0.422         -2.482         -1.164         -2.904         -0.294          0.086         -0.197          0.676          0.004         -0.203          0.028         -2.678         -0.201         -0.177          0.041          0.054         -0.046          0.298        -77.428
      11000.000         -0.509          0.628          0.425          0.046         -0.038          0.022         -0.157         -0.161         -0.860         -1.410         -1.311         -0.029         -0.040          0.025          0.204         -0.223          0.412         -2.067         -7.724         -0.540          0.088         -0.041          0.044         -0.033         -0.318          0.402          0.024         -0.024          0.013         -0.062         -0.009         -0.392          0.252        -12.061         -0.088          0.222        -18.803         -0.147         -0.159          0.203         -0.058          0.056         -0.108         -0.627         -0.040         -0.665         -1.242          0.060          1.276         -0.117          0.024          0.113         -0.102          0.580         -0.095         -0.458         -0.512          1.220         -0.038         -0.044          0.031          0.018         -0.003          0.055          0.021         -0.005         -0.616         -0.015          0.237         -0.002         -0.041          0.001          0.103         -0.285          0.009         -0.200         -0.347         -0.033         -0.004         -0.050          0.026         -0.030         -0.062         -1.149         -0.240         -0.091          1.175         -0.049         -0.028          0.597         -0.015          0.010         -0.041          0.023          0.427          0.010          0.036         -0.010          0.036          0.540          0.066          0.149         -0.010         -0.062          0.007         -0.044         -0.004          0.012         -0.115          0.167         -3.430         -1.588         -0.620          0.143         -6.931         -6.301         -1.245         -2.456         -0.066         -0.092         -0.059          0.005         -0.027         -0.103          0.248          0.118          0.015         -0.120         -0.008          0.004         -0.025         -0.171         -1.389         -0.240         -1.015         -2.588         -0.447          0.057         -0.049          0.713         -0.096         -0.215          0.140         -1.930         -0.427         -0.493          0.006          0.028         -0.063         -0.376        -75.854