# Time	LEU-18	GLU-19	ASP-20	GLY-21	ALA-22	TYR-23	ARG-24	ILE-25	LYS-26	GLN-27	LYS-28	GLY-29	ILE-30	LEU-31	GLY-32	TYR-33	SER-34	GLN-35	ILE-36	GLY-37	ALA-38	GLY-39	VAL-40	TYR-41	LYS-42	GLU-43	GLY-44	THR-45	PHE-46	HIS-47	THR-48	MET-49	TRP-50	HIS-51	VAL-52	THR-53	ARG-54	GLY-55	ALA-56	VAL-57	LEU-58	MET-59	HIS-60	LYS-61	GLY-62	LYS-63	ARG-64	ILE-65	GLU-66	PRO-67	SER-68	TRP-69	ALA-70	ASP-71	VAL-72	LYS-73	LYS-74	ASP-75	LEU-76	ILE-77	SER-78	TYR-79	GLY-80	GLY-81	GLY-82	TRP-83	LYS-84	LEU-85	GLU-86	GLY-87	GLU-88	TRP-89	LYS-90	GLU-91	GLY-92	GLU-93	GLU-94	VAL-95	GLN-96	VAL-97	LEU-98	ALA-99	LEU-100	GLU-101	PRO-102	GLY-103	LYS-104	ASN-105	PRO-106	ARG-107	ALA-108	VAL-109	GLN-110	THR-111	LYS-112	PRO-113	GLY-114	LEU-115	PHE-116	LYS-117	THR-118	ASN-119	THR-120	GLY-121	THR-122	ILE-123	GLY-124	ALA-125	VAL-126	SER-127	LEU-128	ASP-129	PHE-130	SER-131	PRO-132	GLY-133	THR-134	SER-135	GLY-136	SER-137	PRO-138	ILE-139	VAL-140	ASP-141	LYS-142	LYS-143	GLY-144	LYS-145	VAL-146	VAL-147	GLY-148	LEU-149	TYR-150	GLY-151	ASN-152	GLY-153	VAL-154	VAL-155	THR-156	ARG-157	SER-158	GLY-159	ALA-160	TYR-161	VAL-162	SER-163	ALA-164	ILE-165	ALA-166	ASN-167	UNK1-168	
          0.000         -0.031         -0.062         -0.097          0.019          0.017         -0.008          0.298         -0.021          0.021          0.022         -0.188         -0.013         -0.018         -0.021          0.023         -0.042         -0.015         -0.021          0.065         -0.048          0.036         -0.018          0.013         -0.026          0.177         -0.102          0.010         -0.023         -0.011         -0.014         -0.056         -0.547         -1.060         -2.971         -0.228          0.042         -4.114         -0.015         -0.058          0.033         -0.006          0.005          0.012         -0.002         -0.002         -0.082         -0.295          0.016          0.320         -0.024         -0.000         -0.039          0.003         -0.179         -2.139         -0.743         -0.244         -9.992         -0.252         -0.105          0.008         -0.020         -0.018         -0.001         -0.006         -0.002          0.013         -0.003         -0.189         -0.000         -0.248          0.002          0.311         -0.376          0.004         -0.398         -0.517         -0.008          0.006         -0.012         -0.012          0.062         -0.026         -1.712         -0.104         -0.027          1.148         -0.043          0.009          0.626         -0.001          0.000         -0.018         -0.002          0.481          0.037         -0.029         -0.010         -0.009          0.322          0.033         -0.114         -0.064         -0.002          0.020         -0.017         -0.078          0.057         -0.129         -0.322         -9.107         -2.140         -2.976         -1.606         -4.427         -0.150          0.118         -2.425          0.032         -0.036         -0.079         -0.006         -0.035         -0.370          0.344          0.274          0.014          0.187          0.007         -0.002          0.032         -0.203         -1.093         -6.265         -2.814         -4.051         -3.536         -0.630         -0.172          0.294         -0.040         -0.139         -0.175         -3.408         -1.015         -0.553         -0.169         -0.027         -0.066         -0.460        -71.044
       1000.000         -0.419          0.386          0.511          0.017         -0.067          0.059         -0.365         -0.023         -0.431         -0.105         -0.254          0.021          0.018          0.015          0.026         -0.078          0.112         -0.166          0.213         -0.224          0.115         -0.050          0.025          0.007         -0.574          0.619          0.002         -0.032          0.002         -0.087          0.008         -0.630         -0.266          0.177         -0.239         -0.082         -2.794         -0.085          0.001          0.009         -0.037          0.026          0.016         -0.359         -0.016         -0.426         -0.447          0.018          0.563         -0.055         -0.028          0.058         -0.084          1.528          0.208         -1.054         -1.234          5.906          0.026          0.064          0.016          0.058          0.012          0.043         -0.009         -0.045         -0.717         -0.027          0.602          0.065          0.659         -0.009         -0.211          0.364         -0.017          0.211         -0.020         -0.076          0.025         -0.136          0.061         -0.031          0.031         -2.106         -0.200         -0.059          1.242         -0.031         -0.038          0.365         -0.052          0.038         -0.071          0.049         -0.041         -0.081          0.074         -0.060          0.016         -0.203          0.001         -0.031          0.014          0.047         -0.011         -0.093          0.149         -0.191         -0.089         -0.084        -10.268         -3.999         -7.515         -5.804         -9.308         -0.264         -0.761         -1.360         -0.346         -0.034         -0.079         -0.041          0.006          0.462         -0.102         -0.303          0.006         -0.481         -0.049          0.032         -0.178          0.134         -2.266         -1.302         -2.591         -4.754         -2.113         -0.331         -0.210          0.024         -0.161         -0.228          0.169        -10.325         -0.455         -0.787         -0.104         -0.066          0.153          1.386        -64.764
       2000.000          0.112         -0.171         -0.194          0.012          0.028         -0.028          0.588         -0.052          0.381          0.004          0.125          0.018          0.014          0.011          0.006         -0.002         -0.029         -0.028         -0.149         -0.009         -0.024         -0.036          0.005         -0.012          0.208         -0.130          0.012         -0.011          0.021         -0.008          0.028         -0.357         -0.302         -0.896         -0.127         -0.019         -0.837          0.009          0.001         -0.014          0.011         -0.010         -0.004          0.181          0.007          0.057          0.044         -0.001          0.026         -0.008          0.012         -0.025         -0.018          0.557          0.081         -0.600         -0.494          0.649          0.039         -0.030          0.034         -0.008         -0.011         -0.007         -0.022          0.004          0.030          0.026         -0.070          0.015         -0.043          0.020          0.182         -0.113          0.008         -0.282         -0.400         -0.004          0.012          0.015         -0.047          0.058         -0.030         -0.944         -0.003         -0.000          0.728         -0.038          0.019          0.529          0.013         -0.026         -0.011          0.073          0.342          0.020         -0.049         -0.024         -0.039         -0.010         -0.166         -0.179         -0.023         -0.003          0.007         -0.095         -0.044          0.069         -0.498         -0.229         -3.911         -1.282         -0.284         -0.277         -0.308          0.008         -0.003         -1.944         -0.065         -0.006         -0.066          0.019         -0.036         -0.316          0.334          0.245          0.011          0.124          0.035          0.044         -0.024         -0.101         -3.905         -2.415         -1.424         -4.144         -3.908         -4.425         -0.154         -0.198         -0.047         -0.210         -0.138        -20.539         -5.766         -2.845         -0.601         -0.091         -0.097          0.143        -61.148
       3000.000          0.125         -0.149         -0.229          0.010          0.028         -0.026          0.492         -0.033          0.142         -0.024         -0.119          0.004          0.002          0.002         -0.001          0.006         -0.016          0.060         -0.150          0.048         -0.036         -0.022          0.001         -0.014          0.272         -0.207          0.009         -0.007          0.013         -0.003          0.030         -0.110         -0.098         -0.881          0.046          0.030         -0.961          0.012         -0.019         -0.003          0.013         -0.013          0.003          0.142          0.004          0.049         -0.038          0.004          0.036          0.001          0.006         -0.025          0.004          0.222          0.007         -0.198          0.021         -0.247          0.024         -0.033          0.016         -0.019         -0.009         -0.006         -0.013          0.009          0.124         -0.007         -0.165         -0.008         -0.213          0.001          0.269         -0.264          0.009         -0.359         -0.396          0.001          0.014          0.018         -0.033          0.049         -0.014         -0.845         -0.032          0.002          0.678         -0.027          0.015          0.404          0.007         -0.013         -0.002         -0.007          0.409          0.035         -0.007         -0.014          0.003          0.294          0.042         -0.024         -0.052         -0.047          0.003         -0.041         -0.032          0.033         -0.211         -0.127         -2.013         -1.110         -0.240         -0.235         -0.465          0.029         -0.027         -1.347          0.004          0.002         -0.057         -0.002         -0.016         -0.358          0.380          0.325          0.007          0.204          0.019          0.001          0.003         -0.063         -3.330         -3.140         -1.711         -2.959         -1.589         -0.680         -0.093          0.547         -0.009         -0.614         -0.033        -17.086         -0.783         -1.136         -0.225         -0.062         -0.067         -0.265        -40.543
       4000.000          0.142         -0.133         -0.221         -0.002          0.020         -0.034          0.057          0.005         -0.121          0.037         -0.310         -0.028         -0.031         -0.010          0.021          0.021         -0.003          0.106         -0.089          0.057         -0.028          0.013         -0.005         -0.005          0.324         -0.250          0.002         -0.003         -0.008          0.024         -0.011         -0.097          0.117         -2.706          0.006          0.003          0.160          0.022         -0.035          0.004          0.001         -0.008          0.006          0.107          0.003          0.041          0.050          0.008         -0.110          0.015          0.013         -0.031          0.022         -0.651         -0.159          0.383          0.787         -2.992         -0.039         -0.035         -0.009         -0.035         -0.008         -0.012          0.008          0.017          0.304          0.014         -0.385         -0.022         -0.676         -0.032          0.445         -0.436          0.013         -0.497         -0.469         -0.006         -0.022          0.019         -0.027          0.033          0.025         -0.271         -0.023          0.002          0.004          0.002          0.008          0.138          0.009         -0.002         -0.012          0.029          0.491          0.049         -0.017         -0.025          0.027          0.763          0.048          0.033         -0.007         -0.058          0.023         -0.042         -0.039          0.059         -0.218          0.072         -3.145         -1.222         -0.200         -0.293         -0.473         -0.064         -0.123         -0.780          0.036         -0.018         -0.028          0.002         -0.016         -0.470          0.427          0.446          0.008          0.329          0.009         -0.011          0.033         -0.062         -0.501          0.772         -1.877         -5.118         -0.783         -0.325         -0.242          0.899          0.023         -0.970          0.031        -17.821         -0.795         -0.730         -0.167         -0.012         -0.071         -1.002        -40.599
       5000.000          0.171         -0.202         -0.250          0.005          0.022         -0.026          0.427         -0.023          0.214         -0.003          0.015          0.004         -0.001          0.002          0.008          0.009         -0.023          0.056         -0.136          0.064         -0.037         -0.012         -0.011         -0.006          0.326         -0.258          0.006         -0.007          0.003          0.021         -0.001         -0.173          0.019         -0.712          0.024          0.011         -0.200          0.024         -0.024         -0.003          0.014         -0.013         -0.000          0.197          0.005          0.141          0.050         -0.001         -0.071          0.011          0.009         -0.024          0.016         -0.304         -0.074          0.065          0.370         -2.251         -0.013         -0.040          0.004         -0.028         -0.008         -0.010         -0.006          0.006          0.242          0.020         -0.337         -0.015         -0.404          0.000          0.288         -0.290          0.013         -0.383         -0.382          0.002          0.013          0.032         -0.036          0.026         -0.016         -0.560          0.008          0.001          0.429         -0.019          0.017          0.278          0.011         -0.022          0.002         -0.021          0.360          0.045         -0.021         -0.014         -0.049          0.326          0.006         -0.043          0.006         -0.025          0.012         -0.004         -0.062          0.057         -0.262         -0.161         -2.328         -0.814         -0.063         -0.154         -0.196          0.066          0.058         -0.311          0.046         -0.016         -0.038          0.000         -0.015         -0.375          0.350          0.348          0.009          0.267          0.014         -0.010          0.031         -0.059         -0.720         -2.403         -2.111         -1.062         -1.457         -0.595         -0.046          0.286         -0.004         -0.116         -0.145        -10.160         -2.294         -2.356         -0.356         -0.042         -0.075         -0.760        -31.168
       6000.000          0.330         -0.385         -0.385          0.006          0.034         -0.040          0.746         -0.038          0.487          0.035          0.232         -0.001         -0.001         -0.010         -0.005          0.026         -0.033          0.110         -0.166          0.064         -0.049         -0.009         -0.008         -0.003          0.455         -0.392          0.004          0.003         -0.001          0.026         -0.013          0.055          0.017         -0.658         -0.024          0.004          1.246          0.038         -0.006         -0.013          0.024         -0.017         -0.005          0.365          0.010          0.271          0.283         -0.008         -0.316          0.023          0.012         -0.032          0.037         -0.693         -0.076          0.458          0.612         -2.130         -0.017         -0.035          0.000         -0.030         -0.006         -0.022         -0.004          0.017          0.422          0.017         -0.437         -0.006         -0.631          0.006          0.333         -0.302          0.011         -0.420         -0.430          0.010         -0.000          0.032         -0.050          0.057         -0.033         -1.017          0.016          0.010          0.665         -0.045          0.028          0.447          0.008         -0.019         -0.037         -0.019          0.369          0.043         -0.051         -0.001         -0.053          0.139          0.049          0.011         -0.018         -0.045          0.011          0.012         -0.077          0.066         -0.125         -0.181         -6.354         -1.257         -1.175         -0.522         -2.082          0.094          0.216         -0.126          0.038          0.012         -0.034         -0.008         -0.012         -0.483          0.400          0.428          0.000          0.378          0.020         -0.003          0.032         -0.056         -0.515         -0.528         -0.342         -0.098         -0.636         -2.220          0.096         -0.561         -0.005         -0.024         -0.065        -14.205         -0.815         -0.232         -0.058         -0.045         -0.067         -0.851        -32.498
       7000.000         -0.004         -0.007         -0.081          0.013          0.005         -0.016          0.095         -0.011         -0.116         -0.054         -0.258          0.006         -0.002          0.003          0.030         -0.001          0.010          0.024          0.029          0.030          0.034         -0.004          0.007         -0.015          0.148         -0.094          0.006         -0.013          0.003         -0.007          0.007         -0.002         -0.000         -0.243          0.061          0.030         -1.970         -0.006         -0.027          0.013         -0.009         -0.002          0.012         -0.004         -0.002         -0.077         -0.251          0.011          0.166         -0.011         -0.004          0.003         -0.003          0.076          0.012         -0.008          0.186          0.417          0.021         -0.021          0.018         -0.002         -0.009         -0.001         -0.001          0.012          0.019          0.007         -0.212         -0.011         -0.329         -0.015          0.319         -0.322          0.016         -0.407         -0.518         -0.008          0.028          0.021         -0.015          0.029          0.013         -0.751         -0.058         -0.004          0.538         -0.006          0.004          0.323          0.009         -0.013         -0.038          0.004          0.536          0.048         -0.029         -0.019         -0.022          0.495          0.081         -0.085          0.021         -0.040          0.018         -0.064         -0.038          0.071         -0.238         -0.187         -4.669         -2.655         -0.425         -0.072         -0.373         -0.062          0.006         -0.089          0.042         -0.006         -0.045          0.028         -0.026         -0.372          0.436          0.299          0.016          0.188          0.012          0.008          0.000         -0.068         -0.068          0.157         -0.108          0.219         -0.830         -2.250         -0.347          0.709          0.046         -0.474         -0.956        -21.813         -0.843         -0.166         -0.035          0.020         -0.062         -0.459        -37.763
       8000.000          0.173         -0.203         -0.264          0.004          0.024         -0.022          0.522         -0.026          0.254         -0.022         -0.045         -0.022         -0.027         -0.020          0.008         -0.001         -0.013          0.052         -0.120          0.038         -0.002         -0.007          0.002         -0.013          0.328         -0.251          0.006         -0.006          0.004         -0.002          0.007          0.009         -0.004         -0.410          0.062          0.040         -1.283          0.011         -0.028          0.007          0.012         -0.008          0.009          0.183          0.006          0.077         -0.011          0.010         -0.047          0.003          0.004         -0.017          0.008         -0.334         -0.030          0.259          0.582         -0.413          0.033         -0.032          0.003         -0.019         -0.013         -0.009          0.001          0.017          0.240          0.019         -0.382         -0.010         -0.541         -0.017          0.377         -0.360          0.019         -0.464         -0.478          0.013         -0.005          0.019         -0.047          0.047         -0.009         -1.199         -0.010          0.000          0.877         -0.040          0.020          0.464          0.017         -0.014         -0.015         -0.024          0.493          0.046         -0.046          0.016         -0.031          0.400          0.083          0.080         -0.005         -0.085          0.013         -0.011         -0.080          0.071         -0.155         -0.209         -4.538         -1.294         -0.793         -0.340         -2.937          0.047          0.168         -0.142          0.069          0.020         -0.044          0.009         -0.020         -0.467          0.432          0.415          0.002          0.306          0.019         -0.012          0.032         -0.056         -0.277          0.010         -0.206          0.143         -0.540         -1.706         -0.092          0.629          0.132         -0.450         -0.408        -15.647         -0.575         -0.290         -0.024         -0.004         -0.077         -0.818        -31.213
       9000.000          0.105         -0.149         -0.162          0.014          0.010         -0.012          0.522         -0.023          0.266         -0.029         -0.094          0.022          0.010         -0.006          0.007         -0.003          0.015          0.036         -0.041          0.016          0.014         -0.020          0.011         -0.010          0.152         -0.094          0.009         -0.013          0.015         -0.010          0.025         -0.082         -0.105         -0.420          0.034          0.015         -1.245          0.008         -0.008         -0.002          0.008         -0.004          0.003          0.177          0.003          0.046         -0.055          0.005          0.059          0.009          0.009         -0.007         -0.010          0.290          0.038         -0.243         -0.074          0.771          0.038         -0.016          0.018         -0.010         -0.012         -0.005         -0.012          0.006          0.029          0.015         -0.160         -0.014         -0.196          0.004          0.245         -0.258          0.007         -0.359         -0.462         -0.010          0.007          0.008         -0.028          0.034         -0.006         -1.262         -0.036         -0.019          0.995         -0.034          0.004          0.581          0.000         -0.001         -0.033          0.038          0.625          0.029         -0.006         -0.041         -0.007          0.420          0.032         -0.234         -0.018         -0.064          0.021         -0.061         -0.014          0.020         -0.141         -0.138         -5.105         -1.756         -0.552          0.044         -0.568          0.039          0.167         -0.126          0.020          0.010         -0.049          0.012         -0.021         -0.342          0.413          0.309          0.015          0.183          0.018          0.011         -0.001         -0.027         -0.074          0.053         -0.100         -0.087         -1.289         -7.939         -0.483          0.296          0.007         -1.570         -0.820        -17.782         -0.739         -0.154         -0.024          0.017         -0.038         -0.211        -38.921
      10000.000         -0.096          0.093         -0.002          0.008         -0.004          0.007         -0.239          0.014         -0.363         -0.078         -0.521         -0.013         -0.015          0.016          0.029         -0.031          0.037          0.010          0.062         -0.003          0.040          0.001          0.013         -0.006          0.085         -0.032          0.007         -0.006         -0.005         -0.014         -0.001         -0.025          0.010          0.133          0.041          0.023         -1.620         -0.009         -0.025          0.022         -0.016         -0.001          0.017         -0.129         -0.008         -0.161         -0.385          0.014          0.232         -0.014         -0.001          0.016         -0.010          0.073         -0.015         -0.061          0.141          0.425          0.006         -0.018         -0.002          0.000         -0.008          0.005          0.000          0.003         -0.052         -0.001         -0.138         -0.007         -0.246         -0.006          0.271         -0.309          0.005         -0.389         -0.508         -0.024          0.041         -0.006          0.002         -0.008          0.032         -0.371         -0.091         -0.017          0.164          0.018         -0.011          0.461         -0.007          0.006         -0.037         -0.026          0.627          0.019         -0.005         -0.041         -0.019          0.612          0.026          0.025          0.013         -0.026          0.018         -0.052          0.001          0.009         -0.134         -1.548         -9.252         -7.158         -0.554         -0.192         -0.793         -0.127         -0.193         -0.057         -0.003         -0.034         -0.032          0.031         -0.025         -0.332          0.436          0.317          0.013          0.132          0.002          0.003         -0.010         -0.062         -0.524         -0.038         -0.098         -0.157         -0.463         -0.308         -0.001          0.589          0.032         -0.651          0.150        -14.769         -0.609         -0.101         -0.003          0.035         -0.042         -0.331        -39.258
      11000.000         -0.010          0.015          0.001         -0.000          0.001         -0.001         -0.019          0.000         -0.028          0.002         -0.034          0.002          0.002          0.001         -0.002         -0.000         -0.001          0.001         -0.001          0.001         -0.001          0.001         -0.001         -0.000          0.006         -0.009         -0.001         -0.000         -0.002         -0.001         -0.001          0.001          0.001          0.002          0.001          0.000          0.003         -0.000         -0.001          0.001         -0.000         -0.001          0.001         -0.019         -0.000         -0.019         -0.036          0.001         -0.006         -0.001         -0.000          0.002         -0.001         -0.018          0.001          0.021          0.016         -0.003         -0.001          0.001         -0.001         -0.000          0.001          0.001          0.001         -0.001          0.014         -0.001         -0.006          0.001         -0.011         -0.001          0.006         -0.006          0.000         -0.004          0.002          0.000          0.000          0.000         -0.000          0.000          0.000          0.015         -0.000         -0.000         -0.017          0.000          0.000         -0.012          0.000         -0.000         -0.000         -0.000          0.001         -0.000         -0.000          0.000         -0.000          0.005         -0.000          0.000          0.000          0.000         -0.000          0.000         -0.000         -0.000         -0.000         -0.000          0.000          0.007         -0.000         -0.001          0.001          0.000          0.000          0.000          0.000         -0.001          0.001         -0.000          0.000         -0.002         -0.003          0.003         -0.000          0.006         -0.001         -0.001          0.000         -0.000         -0.000         -0.000         -0.000         -0.001          0.001         -0.000         -0.000          0.008          0.000          0.000         -0.000          0.001         -0.000          0.000          0.000         -0.000          0.001         -0.011         -0.137