# Time	LEU-18	GLU-19	ASP-20	GLY-21	ALA-22	TYR-23	ARG-24	ILE-25	LYS-26	GLN-27	LYS-28	GLY-29	ILE-30	LEU-31	GLY-32	TYR-33	SER-34	GLN-35	ILE-36	GLY-37	ALA-38	GLY-39	VAL-40	TYR-41	LYS-42	GLU-43	GLY-44	THR-45	PHE-46	HIS-47	THR-48	MET-49	TRP-50	HIS-51	VAL-52	THR-53	ARG-54	GLY-55	ALA-56	VAL-57	LEU-58	MET-59	HIS-60	LYS-61	GLY-62	LYS-63	ARG-64	ILE-65	GLU-66	PRO-67	SER-68	TRP-69	ALA-70	ASP-71	VAL-72	LYS-73	LYS-74	ASP-75	LEU-76	ILE-77	SER-78	TYR-79	GLY-80	GLY-81	GLY-82	TRP-83	LYS-84	LEU-85	GLU-86	GLY-87	GLU-88	TRP-89	LYS-90	GLU-91	GLY-92	GLU-93	GLU-94	VAL-95	GLN-96	VAL-97	LEU-98	ALA-99	LEU-100	GLU-101	PRO-102	GLY-103	LYS-104	ASN-105	PRO-106	ARG-107	ALA-108	VAL-109	GLN-110	THR-111	LYS-112	PRO-113	GLY-114	LEU-115	PHE-116	LYS-117	THR-118	ASN-119	THR-120	GLY-121	THR-122	ILE-123	GLY-124	ALA-125	VAL-126	SER-127	LEU-128	ASP-129	PHE-130	SER-131	PRO-132	GLY-133	THR-134	SER-135	GLY-136	SER-137	PRO-138	ILE-139	VAL-140	ASP-141	LYS-142	LYS-143	GLY-144	LYS-145	VAL-146	VAL-147	GLY-148	LEU-149	TYR-150	GLY-151	ASN-152	GLY-153	VAL-154	VAL-155	THR-156	ARG-157	SER-158	GLY-159	ALA-160	TYR-161	VAL-162	SER-163	ALA-164	ILE-165	ALA-166	ASN-167	UNK1-168	
          0.000         -0.001          0.008          0.015          0.021         -0.046          0.061         -0.113         -0.002          0.033         -0.022          0.004         -0.003         -0.001         -0.000          0.000          0.005          0.005         -0.137         -0.085         -0.247          0.107         -0.031          0.030         -0.001         -0.050          0.032         -0.006         -0.012          0.020         -0.150          0.019         -1.810         -1.210         -4.859         -0.871         -0.104          4.680         -0.086          0.047         -0.019          0.001         -0.002         -0.004         -0.001         -0.000          0.006          0.014         -0.001         -0.007         -0.020         -0.023          0.103         -0.185          0.896          3.555          0.501         -0.115         49.685          0.312          0.197          0.003          0.054          0.009          0.033          0.008         -0.013         -0.079         -0.028          0.034          0.015          0.051          0.000         -0.023          0.019         -0.002          0.053          0.031         -0.016          0.019         -0.039          0.023         -0.095          0.020          0.604         -0.003          0.001         -0.201          0.016         -0.014         -0.051         -0.009          0.008         -0.000          0.006         -0.026         -0.030          0.035         -0.014          0.001         -0.038         -0.077         -0.016         -0.024         -0.004         -0.013         -0.056          0.092         -0.071         -0.032          0.092          3.668          0.425          3.510          0.905          2.078         -0.008         -0.267          4.151         -0.196          0.080          0.063         -0.001          0.020          0.083         -0.015         -0.035         -0.005         -0.026         -0.004          0.004         -0.094          0.077          3.623          5.620          2.756         11.347          1.132          0.116          0.022         -0.067         -0.000          0.025          0.090          1.223          0.079         -0.026          0.097          0.018          0.048          0.194         48.840
       1000.000          0.074         -0.095         -0.166         -0.008          0.070         -0.065          0.418         -0.000          0.171          0.017          0.034          0.001          0.001          0.002         -0.001          0.030         -0.032          0.103         -0.144          0.179         -0.095          0.037         -0.016         -0.016          0.189         -0.193          0.005          0.020          0.002          0.078          0.001          0.355          0.172          0.125          0.179          0.093          1.263          0.081         -0.015         -0.004          0.032         -0.024         -0.004          0.043          0.008          0.037          0.060         -0.013         -0.089          0.050          0.027         -0.077          0.078         -0.719         -0.148          0.327          0.283         -5.292         -0.017         -0.077          0.002         -0.056         -0.019         -0.047         -0.009          0.037          0.261          0.049         -0.092         -0.021         -0.074          0.023          0.052         -0.089          0.027         -0.131         -0.097          0.057         -0.031          0.088         -0.087         -0.018         -0.045          0.587          0.067          0.013          0.060         -0.010          0.026         -0.015          0.025         -0.045          0.040         -0.037          0.205          0.098         -0.078          0.038         -0.018          0.136          0.063          0.009          0.013         -0.086          0.034          0.023         -0.182          0.296         -0.463         -0.318          5.632          2.592          4.927          4.621          2.431         -0.053          0.249          0.598          0.335         -0.075          0.042          0.043         -0.048         -0.274          0.094          0.043          0.011          0.088          0.084         -0.026          0.204         -0.373         -0.091          2.554          1.693          7.914         -0.164         -0.709          0.096          0.225          0.068          0.086         -0.352          3.469         -0.412         -0.218         -0.155          0.040         -0.208         -0.615         52.970
       2000.000         -0.040          0.052          0.065         -0.002         -0.019          0.009         -0.237          0.005         -0.083         -0.006         -0.014          0.002          0.001          0.000          0.001         -0.006          0.014         -0.003          0.067         -0.038          0.012          0.000         -0.000          0.000         -0.093          0.092         -0.005         -0.012         -0.006         -0.016         -0.001         -0.050         -0.042         -0.292          0.009          0.000         -1.696         -0.014          0.012          0.004         -0.007          0.007          0.008         -0.036         -0.002         -0.004         -0.023          0.001          0.033         -0.013         -0.012          0.019         -0.023          0.167          0.054         -0.062         -0.178          1.009          0.006          0.012          0.001          0.020          0.001          0.011          0.004         -0.013         -0.090         -0.021          0.049          0.000          0.049         -0.024         -0.047          0.067         -0.019          0.117          0.158         -0.003         -0.030         -0.010          0.012         -0.010         -0.002          0.442         -0.008         -0.010         -0.230          0.026         -0.025         -0.136         -0.018          0.004          0.019         -0.008         -0.085         -0.003          0.030          0.003          0.010         -0.054          0.085          0.003         -0.002         -0.012         -0.011         -0.006          0.035          0.030         -0.022         -0.122          0.417          0.806          0.018         -0.140          0.078          0.282          0.385          5.541          0.023         -0.033          0.013         -0.002          0.009          0.195         -0.160         -0.139         -0.013         -0.066         -0.020          0.003         -0.006         -0.067          2.939          2.331         -0.319          2.702          1.718          0.442         -0.178          0.036          0.010          0.078         -0.219          7.211          1.116          0.442         -0.150         -0.051         -0.005          0.368         34.205
       3000.000         -0.029          0.031          0.087         -0.000         -0.041          0.030         -0.312          0.006         -0.039         -0.010         -0.012          0.001          0.001         -0.001          0.002         -0.013          0.004         -0.078          0.060         -0.086          0.025          0.002          0.003          0.002         -0.121          0.091         -0.003         -0.002         -0.010         -0.015         -0.031         -0.095         -0.009          0.149         -0.073         -0.021         -0.181         -0.017          0.016          0.007         -0.008          0.004         -0.001         -0.024         -0.003         -0.005         -0.018          0.000          0.024         -0.015         -0.010          0.024         -0.016          0.126          0.029         -0.042         -0.202          0.767         -0.016          0.025         -0.002          0.017          0.002          0.011          0.009         -0.013         -0.108          0.002          0.046          0.012          0.045         -0.007         -0.050          0.020         -0.013          0.128          0.091         -0.021         -0.006         -0.064          0.033         -0.063         -0.003          0.449         -0.010         -0.010         -0.255          0.023         -0.024         -0.066         -0.019          0.021         -0.007          0.019         -0.061         -0.045          0.023         -0.007         -0.009         -0.076         -0.058         -0.073          0.014          0.041         -0.008         -0.013          0.044         -0.067          0.005          0.142          0.109          0.493         -0.150          0.080          0.013         -0.132         -0.021          2.375         -0.069         -0.010          0.030         -0.041          0.012          0.152         -0.101         -0.113         -0.006         -0.041         -0.026         -0.000         -0.035          0.030          3.576          3.320         -0.032          6.118          0.031         -0.292          0.022         -0.287         -0.046          0.536         -0.076          9.679         -0.537          2.386          0.184          0.061          0.084          0.348         24.746
       4000.000         -0.017          0.023          0.032          0.006         -0.019          0.024         -0.113         -0.004         -0.020         -0.010         -0.008          0.001          0.001          0.001          0.002         -0.005         -0.001         -0.038          0.036         -0.063          0.038         -0.010          0.009         -0.003         -0.056          0.030         -0.001         -0.004         -0.004         -0.037         -0.021         -0.360         -0.122          5.391         -0.090         -0.002         -0.295         -0.026          0.016          0.005         -0.007          0.006          0.001         -0.025         -0.002         -0.000         -0.016         -0.001          0.022         -0.015         -0.011          0.035         -0.029          0.193          0.068         -0.045         -0.138          3.479          0.008          0.032          0.002          0.027          0.005          0.016          0.003         -0.011         -0.077         -0.020          0.046          0.018          0.075         -0.003         -0.016          0.013         -0.007          0.056          0.042         -0.004          0.013         -0.022          0.020         -0.017         -0.009          0.177          0.001         -0.002         -0.044          0.009         -0.009         -0.011         -0.008          0.002          0.004         -0.011         -0.038         -0.028          0.003          0.003         -0.035         -0.027         -0.048         -0.036          0.001          0.020         -0.006          0.002          0.006         -0.011         -0.032         -0.075          0.340          0.358          0.005         -0.047          0.072          0.079          0.187          0.276         -0.058          0.034          0.008         -0.006          0.006          0.073         -0.045         -0.048         -0.003         -0.024         -0.013         -0.007         -0.032         -0.016          0.399          3.134          0.356          5.333         -0.297         -0.308          0.184         -0.229         -0.075          0.631         -0.201          6.399         -0.449          2.020          0.184          0.001          0.010          0.186         11.849
       5000.000         -0.010          0.020          0.024          0.002         -0.019          0.016         -0.122          0.001         -0.029         -0.003         -0.008          0.001          0.000          0.001          0.001         -0.003          0.005         -0.049          0.020         -0.062          0.020          0.002          0.011         -0.001         -0.069          0.039         -0.002         -0.000         -0.001         -0.021         -0.010          0.026         -0.043         -0.054         -0.052         -0.006         -0.159         -0.013          0.010          0.003         -0.006          0.005          0.000         -0.018         -0.001         -0.017         -0.011          0.003          0.016         -0.010         -0.007          0.016         -0.017          0.137          0.034         -0.047         -0.078          1.049          0.001          0.022         -0.002          0.014          0.002          0.008          0.005         -0.005         -0.060         -0.020          0.069          0.014          0.054         -0.013         -0.017          0.023         -0.007          0.068          0.049         -0.010         -0.008         -0.045          0.028         -0.025         -0.002          0.120         -0.009         -0.002         -0.057          0.007         -0.012         -0.011         -0.011          0.016         -0.010          0.017         -0.035         -0.028          0.010          0.002         -0.003         -0.027         -0.010          0.006         -0.005          0.008         -0.005         -0.012          0.006         -0.030         -0.070          0.202          0.246          0.050         -0.128          0.057          0.049          0.006          0.022          0.736         -0.092          0.018          0.028         -0.013          0.010          0.077         -0.048         -0.057         -0.006         -0.024         -0.014          0.000         -0.030          0.028          1.011          3.944         -0.244          2.769         -0.418         -0.160          0.040         -0.050         -0.018         -0.035         -0.114          8.876         -0.412          2.378          0.208          0.016          0.032          0.270         13.569
       6000.000         -0.029          0.030          0.039         -0.004         -0.019          0.013         -0.265          0.002         -0.092          0.002         -0.012          0.002          0.001          0.001          0.001         -0.008          0.008         -0.033          0.008         -0.021          0.002          0.001         -0.002          0.000         -0.083          0.048         -0.002         -0.001         -0.005         -0.012         -0.002         -0.048         -0.008          0.189         -0.027         -0.014         -0.061         -0.012          0.006          0.003         -0.010          0.006          0.001         -0.035         -0.002         -0.011         -0.016          0.002          0.024         -0.008         -0.006          0.014         -0.013          0.109         -0.002         -0.054         -0.082          0.476         -0.008          0.012         -0.004          0.009          0.003          0.009          0.003         -0.010         -0.067         -0.015          0.074          0.012          0.150         -0.015         -0.015          0.022         -0.011          0.099          0.096         -0.008         -0.007         -0.019          0.001         -0.029          0.004          0.741         -0.010         -0.007         -0.281          0.030         -0.021         -0.073         -0.006          0.010          0.021          0.019         -0.058         -0.044          0.042         -0.000          0.006         -0.041         -0.108         -0.037         -0.010          0.042         -0.021         -0.008          0.066         -0.082          0.081          0.005          2.036          0.876          4.009          0.097          0.996         -0.032          0.038          0.150         -0.025          0.010          0.005         -0.008          0.008          0.130         -0.082         -0.095         -0.003         -0.042         -0.015         -0.002         -0.026          0.046          2.038          0.121          0.131         -0.597          0.146         -0.026         -0.062         -0.546         -0.048         -0.061         -0.027          7.662          0.517         -0.027         -0.027         -0.000          0.051          0.252         12.638
       7000.000         -0.019          0.021          0.026          0.000         -0.014          0.009         -0.114          0.001         -0.025         -0.001         -0.003         -0.000         -0.000          0.001          0.001         -0.003         -0.002         -0.016          0.007         -0.019          0.002         -0.002          0.001         -0.000         -0.044          0.023          0.000         -0.000         -0.003         -0.010         -0.001         -0.041         -0.010         -0.004         -0.020         -0.007         -0.056         -0.006          0.004          0.001         -0.004          0.005         -0.001         -0.014         -0.001         -0.010         -0.015          0.001          0.010         -0.006         -0.003          0.008         -0.008          0.067          0.010         -0.033         -0.070          0.428         -0.005          0.008         -0.001          0.007          0.002          0.006          0.003         -0.008         -0.037         -0.012          0.051          0.010          0.115          0.002         -0.026          0.020         -0.015          0.066          0.085         -0.010          0.004         -0.027          0.017         -0.027          0.000          0.324         -0.003          0.001         -0.132          0.004         -0.015         -0.043         -0.012          0.014          0.015          0.015         -0.079         -0.043          0.038         -0.007         -0.006         -0.052         -0.090          0.027         -0.028          0.032         -0.018          0.019          0.046         -0.074          0.062          0.013          3.180          0.779          0.064          0.026          0.002         -0.002         -0.003         -0.023         -0.041         -0.003          0.018         -0.017          0.012          0.094         -0.072         -0.033         -0.008         -0.023         -0.013         -0.003         -0.019          0.045         -0.000         -0.073          0.030         -0.449          0.146          0.190          0.120         -0.328         -0.136          0.312          0.813          7.718          0.226         -0.022         -0.015         -0.005          0.046          0.245         13.407
       8000.000          1.018          0.254         -1.307         -0.061         -0.141          0.206         -0.150         -0.020         -1.195         -0.046          0.025          0.016         -0.066          0.258         -0.083         -0.446          0.394         -0.038         -0.001         -0.031          0.004          0.007          0.001          0.158          1.529          0.601          0.053         -0.025         -0.000          0.005          0.000         -0.018         -0.288          0.494          0.280         -0.307         -0.101         -0.087         -0.005         -0.309         -0.019          0.046          0.421          0.217          0.589         -0.980         -1.450          0.065          0.957          0.208         -0.346         -0.233         -0.155          0.367         -0.333         -0.857         -0.466         -0.809         -0.025         -0.013          0.023         -0.055          0.082         -0.109         -0.330          0.413         -0.216         -0.119          1.493          0.195         -0.586         -0.443          0.979          1.738         -0.165          0.496          0.008         -0.064         -0.248         -0.054          0.142         -0.019         -0.028          2.480         -0.083         -0.076         -0.715         -0.038         -0.218          1.499         -0.056         -0.001         -0.589          0.255         -0.557         -0.185          0.152          0.190         -0.018         -1.425         -0.328         -0.021          0.308          0.082          0.039          0.036          0.308         -0.369          0.183         -0.360          3.130          0.192          2.244          0.174          0.898         -0.100         -0.045         -0.219         -0.034          0.068          0.086         -0.025          0.110          0.353          0.921          0.254          0.228         -1.245          0.097         -0.063          0.069          0.436          0.039          0.074         -0.046         -1.192          0.173          0.096         -0.306         -0.192         -0.599          1.046          0.181          5.861          0.288         -0.228          0.171          0.024          0.157         -0.486         15.344
       9000.000          1.807         -0.743          1.241          0.140          1.146          0.261          0.966         -0.091          1.492          1.329          1.802          0.160          1.334          0.907          0.399          1.040          0.612          1.059          0.238         -0.066         -0.011          0.012          0.102          0.409          1.256          4.743          0.087          0.031         -0.002          0.005         -0.006         -0.010          0.170         -0.699          0.302          0.116          3.324          0.056          0.464          0.823         -0.113         -0.088         -0.090          1.034          0.171          2.471          2.414          0.099          1.287          0.373          1.378          0.562          0.836          2.639          0.245          1.340          0.121          3.090          0.022          0.018          0.019          0.010         -0.095          0.205          0.373         -0.819         -1.369         -0.559          4.029          1.698          1.343          0.114          2.240          4.586          0.653          5.032          5.582          0.029          0.889         -0.007         -0.005         -0.105          0.014          0.499         -0.100          0.920          1.447          2.490          1.101          2.324          0.265          0.315          0.616          0.302          1.137         -0.140          0.210          0.444         -0.099          2.195         -0.175          0.421         -0.039         -0.122          2.988          0.055          0.022         -0.040          0.015          1.343          1.982          2.777          1.407          0.273         -0.005          0.735         -0.053          0.648         -0.013         -0.064         -0.038          0.012          0.219         -0.952          1.686          1.872          0.814          2.770          0.096          1.792          0.254         -0.078          1.142          1.109          2.031          1.332          0.287          1.171          0.409          1.705          1.994          3.218          0.629          5.131          0.244          0.462         -0.137         -0.139          0.312          3.454         26.085
      10000.000         -0.005          0.007          0.007          0.001         -0.005          0.003         -0.058          0.002         -0.009         -0.002         -0.003         -0.000         -0.000          0.001          0.001         -0.002          0.002         -0.009          0.001         -0.004         -0.003          0.002         -0.000          0.001         -0.022          0.011         -0.001          0.001         -0.001         -0.002         -0.004         -0.003         -0.002         -0.017         -0.002         -0.001         -0.027         -0.002          0.001          0.001         -0.001          0.001          0.001         -0.006         -0.000         -0.000         -0.005          0.000          0.002         -0.002         -0.001          0.002         -0.002          0.016          0.002         -0.008         -0.026          0.086         -0.002          0.003         -0.001          0.002          0.000          0.002          0.001         -0.002         -0.012         -0.004          0.024          0.008          0.024         -0.004         -0.007          0.015         -0.005          0.050          0.053         -0.002         -0.009         -0.018          0.007         -0.021         -0.002          0.304          0.006         -0.001         -0.112          0.014         -0.006         -0.055         -0.006          0.002          0.013          0.023         -0.033         -0.029          0.015         -0.003         -0.003         -0.011         -0.030         -0.014         -0.011          0.018         -0.013          0.003          0.009         -0.032         -0.159          1.405          6.220          7.320          0.226          0.092          0.091          0.000         -0.006         -0.001         -0.008         -0.005          0.017         -0.014          0.008          0.058         -0.046         -0.039         -0.004         -0.010         -0.006         -0.002         -0.000          0.005          0.207          0.039          0.007         -0.166          0.143         -0.105         -0.025         -0.134         -0.092          0.361         -0.218          6.140          0.239         -0.042         -0.021         -0.008          0.019          0.084         26.539
      11000.000         -0.447          1.277         -0.470          0.132         -0.287          0.247         -0.386          0.064          1.542          1.371          2.290          0.296          0.229          0.261          0.226         -0.209          0.319          0.403         -0.118         -0.019         -0.004         -0.009         -0.020          0.659         -0.773          1.433          0.616          0.076         -0.007          0.000         -0.007         -0.002          0.421          0.009          0.059         -0.244          0.674         -0.846         -0.166          0.142         -0.079          0.184          0.299          0.482          0.444         -2.632          0.203         -0.034          2.088          0.245         -0.237         -0.061          0.401         -0.677         -0.007          2.584          1.036         -0.650         -0.060          0.020          0.006         -0.047          0.447          0.171          0.037          0.055          0.461          0.044          0.538          0.168          3.027          0.200         -0.559          0.900         -0.050          3.538          1.411         -0.045          0.333          0.032         -0.095         -0.223          0.064          0.956         -0.088          0.195         -0.196          1.238         -0.361          0.307          0.087          0.021          0.500          0.886          0.123         -0.012         -0.066          0.471          0.026         -1.323         -0.100          0.010         -0.284          0.272          1.290          0.040         -0.049          0.116          0.069          0.642          0.303          0.547          0.094          0.192          0.016         -0.063         -0.016          0.130          0.010          0.287         -0.027         -0.014         -0.013          1.831          0.132         -0.454          0.347          0.801          0.186          0.328          0.112          0.007          0.012         -0.373          0.388         -0.326          0.033          0.431          0.229         -0.190          0.581          0.279         -0.008         -0.511          0.030         -0.019         -0.029          0.079         -0.064         -1.053         -2.281